<?xml version="1.0" encoding="UTF-8"?>

<!-- generated on 2026-05-03T11:22:39.950792+07:00 by Eclipse SUMO libsumo 1.26.0
<libsumoConfiguration xmlns:xsi="http://www.w3.org/2001/XMLSchema-instance" xsi:noNamespaceSchemaLocation="http://sumo.dlr.de/xsd/libsumoConfiguration.xsd">

    <input>
        <net-file value="sumo/network.net.xml"/>
        <route-files value="sumo/routes.rou.xml"/>
        <additional-files value="sumo/tls.add.xml,sumo/traffic.add.xml"/>
    </input>

    <output>
        <tripinfo-output value="C:\Users\DELL\Downloads\project\runs\exp_20260503_104131\evaluation\tripinfo_rl.xml"/>
        <tripinfo-output.write-unfinished value="true"/>
    </output>

    <time>
        <begin value="0"/>
        <end value="7200"/>
    </time>

    <processing>
        <time-to-teleport value="300"/>
        <waiting-time-memory value="10000"/>
    </processing>

    <report>
        <verbose value="false"/>
        <no-warnings value="true"/>
        <no-step-log value="true"/>
    </report>

    <emissions>
        <device.emissions.probability value="1.0"/>
    </emissions>

    <random_number>
        <seed value="46"/>
    </random_number>

</libsumoConfiguration>
-->

<tripinfos xmlns:xsi="http://www.w3.org/2001/XMLSchema-instance" xsi:noNamespaceSchemaLocation="http://sumo.dlr.de/xsd/tripinfo_file.xsd">
    <tripinfo id="flow_off_N2S.0" depart="3.00" departLane="N2C_0" departPos="12.10" departSpeed="0.00" departDelay="0.00" arrival="84.00" arrivalLane="C2S_0" arrivalPos="489.60" arrivalSpeed="13.81" duration="81.00" routeLength="987.90" waitingTime="0.00" waitingCount="0" stopTime="0.00" timeLoss="9.24" rerouteNo="0" devices="tripinfo_flow_off_N2S.0 routing_flow_off_N2S.0 emissions_flow_off_N2S.0" vType="bus" speedFactor="1.00" vaporized="">
        <emissions CO_abs="194.78" CO2_abs="1035232.95" HC_abs="18.72" PMx_abs="127.30" NOx_abs="413.71" fuel_abs="332686.80" electricity_abs="0.00"/>
    </tripinfo>
    <tripinfo id="flow_off_N2S.2" depart="14.00" departLane="N2C_0" departPos="15.10" departSpeed="0.00" departDelay="3.00" arrival="94.00" arrivalLane="C2S_0" arrivalPos="489.60" arrivalSpeed="13.67" duration="80.00" routeLength="984.90" waitingTime="0.00" waitingCount="0" stopTime="0.00" timeLoss="9.67" rerouteNo="0" devices="tripinfo_flow_off_N2S.2 routing_flow_off_N2S.2 emissions_flow_off_N2S.2" vType="truck" speedFactor="1.01" vaporized="">
        <emissions CO_abs="109.21" CO2_abs="425273.95" HC_abs="9.75" PMx_abs="129.61" NOx_abs="230.54" fuel_abs="136682.80" electricity_abs="0.00"/>
    </tripinfo>
    <tripinfo id="flow_off_S2N.0" depart="25.00" departLane="S2C_0" departPos="5.10" departSpeed="0.00" departDelay="0.00" arrival="94.00" arrivalLane="C2N_0" arrivalPos="489.60" arrivalSpeed="14.93" duration="69.00" routeLength="994.90" waitingTime="0.00" waitingCount="0" stopTime="0.00" timeLoss="6.13" rerouteNo="0" devices="tripinfo_flow_off_S2N.0 routing_flow_off_S2N.0 emissions_flow_off_S2N.0" vType="car" speedFactor="1.14" vaporized="">
        <emissions CO_abs="1271.88" CO2_abs="184966.92" HC_abs="8.55" PMx_abs="23.51" NOx_abs="65.97" fuel_abs="59963.84" electricity_abs="0.00"/>
    </tripinfo>
    <tripinfo id="flow_off_N2S.1" depart="10.00" departLane="N2C_0" departPos="2.10" departSpeed="0.00" departDelay="0.00" arrival="99.00" arrivalLane="C2S_0" arrivalPos="489.60" arrivalSpeed="11.58" duration="89.00" routeLength="997.90" waitingTime="0.00" waitingCount="0" stopTime="0.00" timeLoss="8.91" rerouteNo="0" devices="tripinfo_flow_off_N2S.1 routing_flow_off_N2S.1 emissions_flow_off_N2S.1" vType="moto" speedFactor="0.90" vaporized="">
        <emissions CO_abs="3133.39" CO2_abs="116198.43" HC_abs="1405.70" PMx_abs="28.47" NOx_abs="156.41" fuel_abs="37678.03" electricity_abs="0.00"/>
    </tripinfo>
    <tripinfo id="flow_off_N2S.4" depart="25.00" departLane="N2C_0" departPos="5.10" departSpeed="0.00" departDelay="0.00" arrival="105.00" arrivalLane="C2S_1" arrivalPos="489.60" arrivalSpeed="13.51" duration="80.00" routeLength="994.90" waitingTime="0.00" waitingCount="0" stopTime="0.00" timeLoss="6.15" rerouteNo="0" devices="tripinfo_flow_off_N2S.4 routing_flow_off_N2S.4 emissions_flow_off_N2S.4" vType="car" speedFactor="0.97" vaporized="">
        <emissions CO_abs="910.91" CO2_abs="177068.00" HC_abs="6.13" PMx_abs="22.27" NOx_abs="62.07" fuel_abs="57403.29" electricity_abs="0.00"/>
    </tripinfo>
    <tripinfo id="flow_off_N2S.3" depart="20.00" departLane="N2C_0" departPos="5.10" departSpeed="0.00" departDelay="0.00" arrival="106.00" arrivalLane="C2S_0" arrivalPos="489.60" arrivalSpeed="12.67" duration="86.00" routeLength="994.90" waitingTime="0.00" waitingCount="0" stopTime="0.00" timeLoss="6.85" rerouteNo="0" devices="tripinfo_flow_off_N2S.3 routing_flow_off_N2S.3 emissions_flow_off_N2S.3" vType="car" speedFactor="0.92" vaporized="">
        <emissions CO_abs="884.06" CO2_abs="183623.01" HC_abs="5.93" PMx_abs="21.50" NOx_abs="63.83" fuel_abs="59528.33" electricity_abs="0.00"/>
    </tripinfo>
    <tripinfo id="flow_off_S2N.1" depart="28.00" departLane="S2C_0" departPos="5.10" departSpeed="0.00" departDelay="0.00" arrival="109.00" arrivalLane="C2N_0" arrivalPos="489.60" arrivalSpeed="13.00" duration="81.00" routeLength="994.90" waitingTime="0.00" waitingCount="0" stopTime="0.00" timeLoss="6.74" rerouteNo="0" devices="tripinfo_flow_off_S2N.1 routing_flow_off_S2N.1 emissions_flow_off_S2N.1" vType="car" speedFactor="0.98" vaporized="">
        <emissions CO_abs="1001.56" CO2_abs="184067.99" HC_abs="6.71" PMx_abs="21.95" NOx_abs="64.46" fuel_abs="59672.53" electricity_abs="0.00"/>
    </tripinfo>
    <tripinfo id="flow_off_S2N.2" depart="31.00" departLane="S2C_0" departPos="2.10" departSpeed="0.00" departDelay="1.00" arrival="114.00" arrivalLane="C2N_0" arrivalPos="489.60" arrivalSpeed="11.93" duration="83.00" routeLength="997.90" waitingTime="0.00" waitingCount="0" stopTime="0.00" timeLoss="8.23" rerouteNo="0" devices="tripinfo_flow_off_S2N.2 routing_flow_off_S2N.2 emissions_flow_off_S2N.2" vType="moto" speedFactor="0.97" vaporized="">
        <emissions CO_abs="3668.86" CO2_abs="117894.78" HC_abs="1423.67" PMx_abs="28.86" NOx_abs="165.25" fuel_abs="38228.10" electricity_abs="0.00"/>
    </tripinfo>
    <tripinfo id="flow_off_N2S.5" depart="32.00" departLane="N2C_0" departPos="5.10" departSpeed="0.00" departDelay="0.00" arrival="116.00" arrivalLane="C2S_0" arrivalPos="489.60" arrivalSpeed="12.79" duration="84.00" routeLength="994.90" waitingTime="0.00" waitingCount="0" stopTime="0.00" timeLoss="6.15" rerouteNo="0" devices="tripinfo_flow_off_N2S.5 routing_flow_off_N2S.5 emissions_flow_off_N2S.5" vType="car" speedFactor="0.92" vaporized="">
        <emissions CO_abs="972.93" CO2_abs="188560.05" HC_abs="6.51" PMx_abs="21.42" NOx_abs="65.48" fuel_abs="61128.79" electricity_abs="0.00"/>
    </tripinfo>
    <tripinfo id="flow_off_E2W.1" depart="51.00" departLane="E2C_0" departPos="5.10" departSpeed="0.00" departDelay="0.00" arrival="124.00" arrivalLane="C2W_0" arrivalPos="489.60" arrivalSpeed="14.48" duration="73.00" routeLength="994.90" waitingTime="0.00" waitingCount="0" stopTime="0.00" timeLoss="6.71" rerouteNo="0" devices="tripinfo_flow_off_E2W.1 routing_flow_off_E2W.1 emissions_flow_off_E2W.1" vType="car" speedFactor="1.09" vaporized="">
        <emissions CO_abs="1122.25" CO2_abs="176713.22" HC_abs="7.54" PMx_abs="22.18" NOx_abs="62.57" fuel_abs="57288.14" electricity_abs="0.00"/>
    </tripinfo>
    <tripinfo id="flow_off_W2E.0" depart="30.00" departLane="W2C_0" departPos="2.10" departSpeed="0.00" departDelay="0.00" arrival="127.00" arrivalLane="C2E_0" arrivalPos="489.60" arrivalSpeed="13.50" duration="97.00" routeLength="997.90" waitingTime="13.00" waitingCount="1" stopTime="0.00" timeLoss="24.90" rerouteNo="0" devices="tripinfo_flow_off_W2E.0 routing_flow_off_W2E.0 emissions_flow_off_W2E.0" vType="moto" speedFactor="1.00" vaporized="">
        <emissions CO_abs="3741.25" CO2_abs="138985.03" HC_abs="1734.20" PMx_abs="34.98" NOx_abs="177.38" fuel_abs="45066.84" electricity_abs="0.00"/>
    </tripinfo>
    <tripinfo id="flow_off_E2W.0" depart="28.00" departLane="E2C_0" departPos="5.10" departSpeed="0.00" departDelay="0.00" arrival="128.00" arrivalLane="C2W_0" arrivalPos="489.60" arrivalSpeed="13.12" duration="100.00" routeLength="994.90" waitingTime="12.00" waitingCount="1" stopTime="0.00" timeLoss="24.94" rerouteNo="0" devices="tripinfo_flow_off_E2W.0 routing_flow_off_E2W.0 emissions_flow_off_E2W.0" vType="car" speedFactor="0.96" vaporized="">
        <emissions CO_abs="1033.77" CO2_abs="228580.27" HC_abs="6.93" PMx_abs="23.25" NOx_abs="79.32" fuel_abs="74102.89" electricity_abs="0.00"/>
    </tripinfo>
    <tripinfo id="flow_off_N2S.6" depart="54.00" departLane="N2C_0" departPos="5.10" departSpeed="0.00" departDelay="0.00" arrival="149.00" arrivalLane="C2S_0" arrivalPos="489.60" arrivalSpeed="10.51" duration="95.00" routeLength="994.90" waitingTime="0.00" waitingCount="0" stopTime="0.00" timeLoss="8.48" rerouteNo="0" devices="tripinfo_flow_off_N2S.6 routing_flow_off_N2S.6 emissions_flow_off_N2S.6" vType="car" speedFactor="0.83" vaporized="">
        <emissions CO_abs="766.59" CO2_abs="194858.02" HC_abs="5.13" PMx_abs="21.86" NOx_abs="67.17" fuel_abs="63170.67" electricity_abs="0.00"/>
    </tripinfo>
    <tripinfo id="flow_off_E2W.3" depart="65.00" departLane="E2C_0" departPos="5.10" departSpeed="0.00" departDelay="0.00" arrival="160.00" arrivalLane="C2W_0" arrivalPos="489.60" arrivalSpeed="13.11" duration="95.00" routeLength="994.90" waitingTime="9.00" waitingCount="1" stopTime="0.00" timeLoss="21.14" rerouteNo="0" devices="tripinfo_flow_off_E2W.3 routing_flow_off_E2W.3 emissions_flow_off_E2W.3" vType="car" speedFactor="0.98" vaporized="">
        <emissions CO_abs="1124.49" CO2_abs="219670.87" HC_abs="7.51" PMx_abs="21.20" NOx_abs="75.79" fuel_abs="71214.39" electricity_abs="0.00"/>
    </tripinfo>
    <tripinfo id="flow_off_W2E.2" depart="67.00" departLane="W2C_0" departPos="5.10" departSpeed="0.00" departDelay="0.00" arrival="160.00" arrivalLane="C2E_0" arrivalPos="489.60" arrivalSpeed="13.35" duration="93.00" routeLength="994.90" waitingTime="5.00" waitingCount="1" stopTime="0.00" timeLoss="18.75" rerouteNo="0" devices="tripinfo_flow_off_W2E.2 routing_flow_off_W2E.2 emissions_flow_off_W2E.2" vType="car" speedFactor="0.96" vaporized="">
        <emissions CO_abs="1126.23" CO2_abs="218901.40" HC_abs="7.51" PMx_abs="21.26" NOx_abs="75.02" fuel_abs="70964.90" electricity_abs="0.00"/>
    </tripinfo>
    <tripinfo id="flow_off_E2W.4" depart="68.00" departLane="E2C_0" departPos="5.10" departSpeed="0.00" departDelay="2.00" arrival="162.00" arrivalLane="C2W_1" arrivalPos="489.60" arrivalSpeed="12.78" duration="94.00" routeLength="994.90" waitingTime="7.00" waitingCount="1" stopTime="0.00" timeLoss="20.19" rerouteNo="0" devices="tripinfo_flow_off_E2W.4 routing_flow_off_E2W.4 emissions_flow_off_E2W.4" vType="car" speedFactor="0.98" vaporized="">
        <emissions CO_abs="1101.32" CO2_abs="221408.62" HC_abs="7.37" PMx_abs="22.51" NOx_abs="76.99" fuel_abs="71777.80" electricity_abs="0.00"/>
    </tripinfo>
    <tripinfo id="flow_off_W2E.1" depart="56.00" departLane="W2C_0" departPos="15.10" departSpeed="0.00" departDelay="0.00" arrival="163.00" arrivalLane="C2E_1" arrivalPos="489.60" arrivalSpeed="13.86" duration="107.00" routeLength="984.90" waitingTime="16.00" waitingCount="1" stopTime="0.00" timeLoss="37.33" rerouteNo="0" devices="tripinfo_flow_off_W2E.1 routing_flow_off_W2E.1 emissions_flow_off_W2E.1" vType="truck" speedFactor="1.03" vaporized="">
        <emissions CO_abs="148.67" CO2_abs="522320.47" HC_abs="12.46" PMx_abs="164.58" NOx_abs="240.27" fuel_abs="167867.33" electricity_abs="0.00"/>
    </tripinfo>
    <tripinfo id="flow_off_E2W.2" depart="57.00" departLane="E2C_0" departPos="12.10" departSpeed="0.00" departDelay="0.00" arrival="163.00" arrivalLane="C2W_0" arrivalPos="489.60" arrivalSpeed="13.55" duration="106.00" routeLength="987.90" waitingTime="16.00" waitingCount="1" stopTime="0.00" timeLoss="34.16" rerouteNo="0" devices="tripinfo_flow_off_E2W.2 routing_flow_off_E2W.2 emissions_flow_off_E2W.2" vType="bus" speedFactor="1.00" vaporized="">
        <emissions CO_abs="266.12" CO2_abs="1295693.40" HC_abs="23.24" PMx_abs="159.59" NOx_abs="516.46" fuel_abs="416392.99" electricity_abs="0.00"/>
    </tripinfo>
    <tripinfo id="flow_off_E2W.5" depart="85.00" departLane="E2C_0" departPos="5.10" departSpeed="0.00" departDelay="0.00" arrival="164.00" arrivalLane="C2W_1" arrivalPos="489.60" arrivalSpeed="15.14" duration="79.00" routeLength="994.90" waitingTime="0.00" waitingCount="0" stopTime="0.00" timeLoss="13.53" rerouteNo="0" devices="tripinfo_flow_off_E2W.5 routing_flow_off_E2W.5 emissions_flow_off_E2W.5" vType="car" speedFactor="1.11" vaporized="">
        <emissions CO_abs="1410.06" CO2_abs="211944.17" HC_abs="9.41" PMx_abs="21.68" NOx_abs="74.16" fuel_abs="68709.33" electricity_abs="0.00"/>
    </tripinfo>
    <tripinfo id="flow_off_N2S.7" depart="90.00" departLane="N2C_0" departPos="12.10" departSpeed="0.00" departDelay="0.00" arrival="174.00" arrivalLane="C2S_0" arrivalPos="489.60" arrivalSpeed="13.57" duration="84.00" routeLength="987.90" waitingTime="0.00" waitingCount="0" stopTime="0.00" timeLoss="12.25" rerouteNo="0" devices="tripinfo_flow_off_N2S.7 routing_flow_off_N2S.7 emissions_flow_off_N2S.7" vType="bus" speedFactor="1.00" vaporized="">
        <emissions CO_abs="220.71" CO2_abs="1195448.99" HC_abs="20.85" PMx_abs="137.80" NOx_abs="450.58" fuel_abs="384175.99" electricity_abs="0.00"/>
    </tripinfo>
    <tripinfo id="flow_off_S2N.5" depart="89.00" departLane="S2C_0" departPos="5.10" departSpeed="0.00" departDelay="3.00" arrival="176.00" arrivalLane="C2N_0" arrivalPos="489.60" arrivalSpeed="12.79" duration="87.00" routeLength="994.90" waitingTime="0.00" waitingCount="0" stopTime="0.00" timeLoss="12.43" rerouteNo="0" devices="tripinfo_flow_off_S2N.5 routing_flow_off_S2N.5 emissions_flow_off_S2N.5" vType="car" speedFactor="0.97" vaporized="">
        <emissions CO_abs="1020.60" CO2_abs="200628.56" HC_abs="6.83" PMx_abs="21.79" NOx_abs="68.56" fuel_abs="65041.12" electricity_abs="0.00"/>
    </tripinfo>
    <tripinfo id="flow_off_S2N.6" depart="92.00" departLane="S2C_0" departPos="2.10" departSpeed="0.00" departDelay="0.00" arrival="177.00" arrivalLane="C2N_1" arrivalPos="489.60" arrivalSpeed="13.01" duration="85.00" routeLength="997.90" waitingTime="0.00" waitingCount="0" stopTime="0.00" timeLoss="13.24" rerouteNo="0" devices="tripinfo_flow_off_S2N.6 routing_flow_off_S2N.6 emissions_flow_off_S2N.6" vType="moto" speedFactor="1.00" vaporized="">
        <emissions CO_abs="4034.19" CO2_abs="129856.13" HC_abs="1542.45" PMx_abs="31.12" NOx_abs="182.51" fuel_abs="42106.49" electricity_abs="0.00"/>
    </tripinfo>
    <tripinfo id="flow_off_S2N.3" depart="76.00" departLane="S2C_0" departPos="5.10" departSpeed="0.00" departDelay="0.00" arrival="181.00" arrivalLane="C2N_0" arrivalPos="489.60" arrivalSpeed="11.59" duration="105.00" routeLength="994.90" waitingTime="10.00" waitingCount="1" stopTime="0.00" timeLoss="22.01" rerouteNo="0" devices="tripinfo_flow_off_S2N.3 routing_flow_off_S2N.3 emissions_flow_off_S2N.3" vType="car" speedFactor="0.87" vaporized="">
        <emissions CO_abs="880.55" CO2_abs="216568.71" HC_abs="5.88" PMx_abs="20.57" NOx_abs="74.61" fuel_abs="70208.84" electricity_abs="0.00"/>
    </tripinfo>
    <tripinfo id="flow_off_S2N.4" depart="84.00" departLane="S2C_0" departPos="15.10" departSpeed="0.00" departDelay="0.00" arrival="184.00" arrivalLane="C2N_1" arrivalPos="489.60" arrivalSpeed="12.84" duration="100.00" routeLength="984.90" waitingTime="2.00" waitingCount="1" stopTime="0.00" timeLoss="22.37" rerouteNo="0" devices="tripinfo_flow_off_S2N.4 routing_flow_off_S2N.4 emissions_flow_off_S2N.4" vType="truck" speedFactor="0.92" vaporized="">
        <emissions CO_abs="134.73" CO2_abs="473138.29" HC_abs="11.11" PMx_abs="142.85" NOx_abs="228.69" fuel_abs="152060.29" electricity_abs="0.00"/>
    </tripinfo>
    <tripinfo id="flow_off_E2W.6" depart="95.00" departLane="E2C_0" departPos="5.10" departSpeed="0.00" departDelay="0.00" arrival="189.00" arrivalLane="C2W_0" arrivalPos="489.60" arrivalSpeed="14.65" duration="94.00" routeLength="994.90" waitingTime="12.00" waitingCount="1" stopTime="0.00" timeLoss="26.72" rerouteNo="0" devices="tripinfo_flow_off_E2W.6 routing_flow_off_E2W.6 emissions_flow_off_E2W.6" vType="car" speedFactor="1.08" vaporized="">
        <emissions CO_abs="1306.17" CO2_abs="241721.83" HC_abs="8.77" PMx_abs="25.14" NOx_abs="84.86" fuel_abs="78363.13" electricity_abs="0.00"/>
    </tripinfo>
    <tripinfo id="flow_off_W2E.3" depart="92.00" departLane="W2C_0" departPos="12.10" departSpeed="0.00" departDelay="0.00" arrival="193.00" arrivalLane="C2E_0" arrivalPos="489.60" arrivalSpeed="13.72" duration="101.00" routeLength="987.90" waitingTime="13.00" waitingCount="1" stopTime="0.00" timeLoss="29.81" rerouteNo="0" devices="tripinfo_flow_off_W2E.3 routing_flow_off_W2E.3 emissions_flow_off_W2E.3" vType="bus" speedFactor="1.00" vaporized="">
        <emissions CO_abs="253.81" CO2_abs="1247876.51" HC_abs="22.33" PMx_abs="153.83" NOx_abs="497.71" fuel_abs="401025.65" electricity_abs="0.00"/>
    </tripinfo>
    <tripinfo id="flow_off_N2S.9" depart="109.00" departLane="N2C_0" departPos="5.10" departSpeed="0.00" departDelay="0.00" arrival="205.00" arrivalLane="C2S_0" arrivalPos="489.60" arrivalSpeed="13.91" duration="96.00" routeLength="994.90" waitingTime="17.00" waitingCount="1" stopTime="0.00" timeLoss="27.84" rerouteNo="0" devices="tripinfo_flow_off_N2S.9 routing_flow_off_N2S.9 emissions_flow_off_N2S.9" vType="car" speedFactor="1.06" vaporized="">
        <emissions CO_abs="1187.63" CO2_abs="229523.16" HC_abs="7.96" PMx_abs="22.88" NOx_abs="80.85" fuel_abs="74408.46" electricity_abs="0.00"/>
    </tripinfo>
    <tripinfo id="flow_off_N2S.10" depart="127.00" departLane="N2C_0" departPos="5.10" departSpeed="0.00" departDelay="0.00" arrival="208.00" arrivalLane="C2S_1" arrivalPos="489.60" arrivalSpeed="13.11" duration="81.00" routeLength="994.90" waitingTime="0.00" waitingCount="0" stopTime="0.00" timeLoss="10.92" rerouteNo="0" devices="tripinfo_flow_off_N2S.10 routing_flow_off_N2S.10 emissions_flow_off_N2S.10" vType="car" speedFactor="1.03" vaporized="">
        <emissions CO_abs="1201.69" CO2_abs="206532.35" HC_abs="8.05" PMx_abs="22.78" NOx_abs="71.27" fuel_abs="66955.00" electricity_abs="0.00"/>
    </tripinfo>
    <tripinfo id="flow_off_N2S.8" depart="101.00" departLane="N2C_0" departPos="2.10" departSpeed="0.00" departDelay="0.00" arrival="211.00" arrivalLane="C2S_0" arrivalPos="489.60" arrivalSpeed="11.63" duration="110.00" routeLength="997.90" waitingTime="18.00" waitingCount="1" stopTime="0.00" timeLoss="31.95" rerouteNo="0" devices="tripinfo_flow_off_N2S.8 routing_flow_off_N2S.8 emissions_flow_off_N2S.8" vType="moto" speedFactor="0.93" vaporized="">
        <emissions CO_abs="3252.74" CO2_abs="152482.36" HC_abs="1970.50" PMx_abs="40.45" NOx_abs="172.70" fuel_abs="49443.73" electricity_abs="0.00"/>
    </tripinfo>
    <tripinfo id="flow_off_S2N.7" depart="116.00" departLane="S2C_0" departPos="5.10" departSpeed="0.00" departDelay="0.00" arrival="211.00" arrivalLane="C2N_0" arrivalPos="489.60" arrivalSpeed="11.30" duration="95.00" routeLength="994.90" waitingTime="5.00" waitingCount="1" stopTime="0.00" timeLoss="15.39" rerouteNo="0" devices="tripinfo_flow_off_S2N.7 routing_flow_off_S2N.7 emissions_flow_off_S2N.7" vType="car" speedFactor="0.90" vaporized="">
        <emissions CO_abs="945.22" CO2_abs="202174.48" HC_abs="6.31" PMx_abs="19.71" NOx_abs="69.07" fuel_abs="65542.26" electricity_abs="0.00"/>
    </tripinfo>
    <tripinfo id="flow_off_N2S.11" depart="154.00" departLane="N2C_0" departPos="5.10" departSpeed="0.00" departDelay="0.00" arrival="219.00" arrivalLane="C2S_0" arrivalPos="489.60" arrivalSpeed="16.30" duration="65.00" routeLength="994.90" waitingTime="0.00" waitingCount="0" stopTime="0.00" timeLoss="6.16" rerouteNo="0" devices="tripinfo_flow_off_N2S.11 routing_flow_off_N2S.11 emissions_flow_off_N2S.11" vType="car" speedFactor="1.23" vaporized="">
        <emissions CO_abs="1493.34" CO2_abs="190395.60" HC_abs="10.04" PMx_abs="23.72" NOx_abs="68.69" fuel_abs="61723.62" electricity_abs="0.00"/>
    </tripinfo>
    <tripinfo id="flow_off_E2W.9" depart="149.00" departLane="E2C_0" departPos="5.10" departSpeed="0.00" departDelay="2.00" arrival="238.00" arrivalLane="C2W_0" arrivalPos="489.60" arrivalSpeed="13.80" duration="89.00" routeLength="994.90" waitingTime="8.00" waitingCount="1" stopTime="0.00" timeLoss="18.80" rerouteNo="0" devices="tripinfo_flow_off_E2W.9 routing_flow_off_E2W.9 emissions_flow_off_E2W.9" vType="car" speedFactor="1.03" vaporized="">
        <emissions CO_abs="1209.97" CO2_abs="221728.32" HC_abs="8.09" PMx_abs="22.65" NOx_abs="77.23" fuel_abs="71881.34" electricity_abs="0.00"/>
    </tripinfo>
    <tripinfo id="flow_off_E2W.7" depart="139.00" departLane="E2C_0" departPos="5.10" departSpeed="0.00" departDelay="0.00" arrival="242.00" arrivalLane="C2W_0" arrivalPos="489.60" arrivalSpeed="12.18" duration="103.00" routeLength="994.90" waitingTime="14.00" waitingCount="1" stopTime="0.00" timeLoss="25.41" rerouteNo="0" devices="tripinfo_flow_off_E2W.7 routing_flow_off_E2W.7 emissions_flow_off_E2W.7" vType="car" speedFactor="0.92" vaporized="">
        <emissions CO_abs="991.32" CO2_abs="229407.54" HC_abs="6.63" PMx_abs="22.35" NOx_abs="79.38" fuel_abs="74371.08" electricity_abs="0.00"/>
    </tripinfo>
    <tripinfo id="flow_off_E2W.10" depart="152.00" departLane="E2C_0" departPos="5.10" departSpeed="0.00" departDelay="4.00" arrival="243.00" arrivalLane="C2W_1" arrivalPos="489.60" arrivalSpeed="12.89" duration="91.00" routeLength="994.90" waitingTime="2.00" waitingCount="1" stopTime="0.00" timeLoss="14.97" rerouteNo="0" devices="tripinfo_flow_off_E2W.10 routing_flow_off_E2W.10 emissions_flow_off_E2W.10" vType="car" speedFactor="0.95" vaporized="">
        <emissions CO_abs="1044.82" CO2_abs="214414.73" HC_abs="7.00" PMx_abs="22.54" NOx_abs="73.95" fuel_abs="69510.44" electricity_abs="0.00"/>
    </tripinfo>
    <tripinfo id="flow_off_E2W.8" depart="146.00" departLane="E2C_0" departPos="5.10" departSpeed="0.00" departDelay="0.00" arrival="244.00" arrivalLane="C2W_0" arrivalPos="489.60" arrivalSpeed="13.26" duration="98.00" routeLength="994.90" waitingTime="9.00" waitingCount="1" stopTime="0.00" timeLoss="22.99" rerouteNo="0" devices="tripinfo_flow_off_E2W.8 routing_flow_off_E2W.8 emissions_flow_off_E2W.8" vType="car" speedFactor="0.96" vaporized="">
        <emissions CO_abs="1136.64" CO2_abs="224465.72" HC_abs="7.58" PMx_abs="20.36" NOx_abs="77.63" fuel_abs="72768.76" electricity_abs="0.00"/>
    </tripinfo>
    <tripinfo id="flow_off_N2S.12" depart="175.00" departLane="N2C_0" departPos="5.10" departSpeed="0.00" departDelay="0.00" arrival="250.00" arrivalLane="C2S_0" arrivalPos="489.60" arrivalSpeed="14.93" duration="75.00" routeLength="994.90" waitingTime="0.00" waitingCount="0" stopTime="0.00" timeLoss="9.84" rerouteNo="0" devices="tripinfo_flow_off_N2S.12 routing_flow_off_N2S.12 emissions_flow_off_N2S.12" vType="car" speedFactor="1.11" vaporized="">
        <emissions CO_abs="1440.79" CO2_abs="208229.04" HC_abs="9.62" PMx_abs="21.40" NOx_abs="72.77" fuel_abs="67504.87" electricity_abs="0.00"/>
    </tripinfo>
    <tripinfo id="flow_off_E2W.11" depart="154.00" departLane="E2C_0" departPos="2.10" departSpeed="0.00" departDelay="0.00" arrival="252.00" arrivalLane="C2W_0" arrivalPos="489.60" arrivalSpeed="9.73" duration="98.00" routeLength="997.90" waitingTime="0.00" waitingCount="0" stopTime="0.00" timeLoss="11.65" rerouteNo="0" devices="tripinfo_flow_off_E2W.11 routing_flow_off_E2W.11 emissions_flow_off_E2W.11" vType="moto" speedFactor="0.83" vaporized="">
        <emissions CO_abs="2746.25" CO2_abs="122725.18" HC_abs="1498.19" PMx_abs="30.71" NOx_abs="152.55" fuel_abs="39794.45" electricity_abs="0.00"/>
    </tripinfo>
    <tripinfo id="flow_off_S2N.9" depart="172.00" departLane="S2C_0" departPos="5.10" departSpeed="0.00" departDelay="0.00" arrival="254.00" arrivalLane="C2N_0" arrivalPos="489.60" arrivalSpeed="13.29" duration="82.00" routeLength="994.90" waitingTime="0.00" waitingCount="0" stopTime="0.00" timeLoss="11.66" rerouteNo="0" devices="tripinfo_flow_off_S2N.9 routing_flow_off_S2N.9 emissions_flow_off_S2N.9" vType="car" speedFactor="1.02" vaporized="">
        <emissions CO_abs="1178.30" CO2_abs="206978.69" HC_abs="7.88" PMx_abs="22.24" NOx_abs="71.48" fuel_abs="67099.63" electricity_abs="0.00"/>
    </tripinfo>
    <tripinfo id="flow_off_S2N.8" depart="152.00" departLane="S2C_0" departPos="5.10" departSpeed="0.00" departDelay="0.00" arrival="257.00" arrivalLane="C2N_0" arrivalPos="489.60" arrivalSpeed="13.04" duration="105.00" routeLength="994.90" waitingTime="18.00" waitingCount="1" stopTime="0.00" timeLoss="29.41" rerouteNo="0" devices="tripinfo_flow_off_S2N.8 routing_flow_off_S2N.8 emissions_flow_off_S2N.8" vType="car" speedFactor="0.96" vaporized="">
        <emissions CO_abs="1032.61" CO2_abs="232102.46" HC_abs="6.92" PMx_abs="22.23" NOx_abs="81.34" fuel_abs="75244.83" electricity_abs="0.00"/>
    </tripinfo>
    <tripinfo id="flow_off_N2S.13" depart="185.00" departLane="N2C_0" departPos="2.10" departSpeed="0.00" departDelay="0.00" arrival="262.00" arrivalLane="C2S_0" arrivalPos="489.60" arrivalSpeed="14.43" duration="77.00" routeLength="997.90" waitingTime="0.00" waitingCount="0" stopTime="0.00" timeLoss="7.25" rerouteNo="0" devices="tripinfo_flow_off_N2S.13 routing_flow_off_N2S.13 emissions_flow_off_N2S.13" vType="moto" speedFactor="1.04" vaporized="">
        <emissions CO_abs="4301.21" CO2_abs="116119.28" HC_abs="1371.68" PMx_abs="27.42" NOx_abs="176.04" fuel_abs="37652.23" electricity_abs="0.00"/>
    </tripinfo>
    <tripinfo id="flow_off_E2W.12" depart="177.00" departLane="E2C_0" departPos="5.10" departSpeed="0.00" departDelay="0.00" arrival="268.00" arrivalLane="C2W_0" arrivalPos="489.60" arrivalSpeed="14.59" duration="91.00" routeLength="994.90" waitingTime="11.00" waitingCount="1" stopTime="0.00" timeLoss="23.53" rerouteNo="0" devices="tripinfo_flow_off_E2W.12 routing_flow_off_E2W.12 emissions_flow_off_E2W.12" vType="car" speedFactor="1.07" vaporized="">
        <emissions CO_abs="1320.55" CO2_abs="231464.69" HC_abs="8.84" PMx_abs="22.82" NOx_abs="81.18" fuel_abs="75037.81" electricity_abs="0.00"/>
    </tripinfo>
    <tripinfo id="flow_off_E2W.13" depart="190.00" departLane="E2C_0" departPos="5.10" departSpeed="0.00" departDelay="0.00" arrival="268.00" arrivalLane="C2W_1" arrivalPos="489.60" arrivalSpeed="13.33" duration="78.00" routeLength="994.90" waitingTime="0.00" waitingCount="0" stopTime="0.00" timeLoss="9.24" rerouteNo="0" devices="tripinfo_flow_off_E2W.13 routing_flow_off_E2W.13 emissions_flow_off_E2W.13" vType="car" speedFactor="1.05" vaporized="">
        <emissions CO_abs="1292.96" CO2_abs="204507.30" HC_abs="8.64" PMx_abs="21.33" NOx_abs="70.54" fuel_abs="66298.38" electricity_abs="0.00"/>
    </tripinfo>
    <tripinfo id="flow_off_W2E.4" depart="188.00" departLane="W2C_0" departPos="5.10" departSpeed="0.00" departDelay="0.00" arrival="272.00" arrivalLane="C2E_0" arrivalPos="489.60" arrivalSpeed="11.87" duration="84.00" routeLength="994.90" waitingTime="0.00" waitingCount="0" stopTime="0.00" timeLoss="6.46" rerouteNo="0" devices="tripinfo_flow_off_W2E.4 routing_flow_off_W2E.4 emissions_flow_off_W2E.4" vType="car" speedFactor="0.93" vaporized="">
        <emissions CO_abs="898.66" CO2_abs="181830.70" HC_abs="6.03" PMx_abs="21.59" NOx_abs="63.34" fuel_abs="58947.29" electricity_abs="0.00"/>
    </tripinfo>
    <tripinfo id="flow_off_W2E.5" depart="192.00" departLane="W2C_0" departPos="12.10" departSpeed="0.00" departDelay="3.00" arrival="273.00" arrivalLane="C2E_1" arrivalPos="489.60" arrivalSpeed="13.57" duration="81.00" routeLength="987.90" waitingTime="0.00" waitingCount="0" stopTime="0.00" timeLoss="9.12" rerouteNo="0" devices="tripinfo_flow_off_W2E.5 routing_flow_off_W2E.5 emissions_flow_off_W2E.5" vType="bus" speedFactor="1.00" vaporized="">
        <emissions CO_abs="199.84" CO2_abs="1049963.50" HC_abs="19.24" PMx_abs="132.71" NOx_abs="428.65" fuel_abs="337419.95" electricity_abs="0.00"/>
    </tripinfo>
    <tripinfo id="flow_off_W2E.6" depart="195.00" departLane="W2C_0" departPos="2.10" departSpeed="0.00" departDelay="2.00" arrival="281.00" arrivalLane="C2E_0" arrivalPos="489.60" arrivalSpeed="12.87" duration="86.00" routeLength="997.90" waitingTime="0.00" waitingCount="0" stopTime="0.00" timeLoss="9.01" rerouteNo="0" devices="tripinfo_flow_off_W2E.6 routing_flow_off_W2E.6 emissions_flow_off_W2E.6" vType="moto" speedFactor="0.93" vaporized="">
        <emissions CO_abs="2983.17" CO2_abs="104923.47" HC_abs="1280.05" PMx_abs="26.16" NOx_abs="140.26" fuel_abs="34022.14" electricity_abs="0.00"/>
    </tripinfo>
    <tripinfo id="flow_off_S2N.10" depart="198.00" departLane="S2C_0" departPos="5.10" departSpeed="0.00" departDelay="0.00" arrival="285.00" arrivalLane="C2N_0" arrivalPos="489.60" arrivalSpeed="14.57" duration="87.00" routeLength="994.90" waitingTime="7.00" waitingCount="1" stopTime="0.00" timeLoss="18.81" rerouteNo="0" devices="tripinfo_flow_off_S2N.10 routing_flow_off_S2N.10 emissions_flow_off_S2N.10" vType="car" speedFactor="1.06" vaporized="">
        <emissions CO_abs="1239.82" CO2_abs="224212.44" HC_abs="8.31" PMx_abs="24.14" NOx_abs="78.43" fuel_abs="72686.71" electricity_abs="0.00"/>
    </tripinfo>