<?xml version="1.0" encoding="UTF-8"?>

<!-- generated on 2026-05-03T11:22:32.557276+07:00 by Eclipse SUMO sumo 1.26.0
<sumoConfiguration xmlns:xsi="http://www.w3.org/2001/XMLSchema-instance" xsi:noNamespaceSchemaLocation="http://sumo.dlr.de/xsd/sumoConfiguration.xsd">

    <input>
        <net-file value="sumo/network.net.xml"/>
        <route-files value="sumo/routes.rou.xml"/>
        <additional-files value="sumo/tls_webster.add.xml,sumo/traffic.add.xml"/>
    </input>

    <output>
        <tripinfo-output value="C:\Users\DELL\Downloads\project\runs\exp_20260503_104131\evaluation\tripinfo_webster.xml"/>
        <tripinfo-output.write-unfinished value="true"/>
    </output>

    <time>
        <begin value="0"/>
        <end value="7200"/>
    </time>

    <processing>
        <time-to-teleport value="300"/>
        <waiting-time-memory value="10000"/>
    </processing>

    <report>
        <verbose value="false"/>
        <no-step-log value="true"/>
    </report>

    <emissions>
        <device.emissions.probability value="1.0"/>
    </emissions>

    <traci_server>
        <remote-port value="64317"/>
    </traci_server>

    <random_number>
        <seed value="46"/>
    </random_number>

</sumoConfiguration>
-->

<tripinfos xmlns:xsi="http://www.w3.org/2001/XMLSchema-instance" xsi:noNamespaceSchemaLocation="http://sumo.dlr.de/xsd/tripinfo_file.xsd">
    <tripinfo id="flow_off_E2W.0" depart="28.00" departLane="E2C_0" departPos="5.10" departSpeed="0.00" departDelay="0.00" arrival="110.00" arrivalLane="C2W_0" arrivalPos="489.60" arrivalSpeed="13.16" duration="82.00" routeLength="994.90" waitingTime="0.00" waitingCount="0" stopTime="0.00" timeLoss="6.70" rerouteNo="0" devices="tripinfo_flow_off_E2W.0 routing_flow_off_E2W.0 emissions_flow_off_E2W.0" vType="car" speedFactor="0.96" vaporized="">
        <emissions CO_abs="937.02" CO2_abs="181969.37" HC_abs="6.29" PMx_abs="21.86" NOx_abs="63.53" fuel_abs="58992.22" electricity_abs="0.00"/>
    </tripinfo>
    <tripinfo id="flow_off_W2E.0" depart="30.00" departLane="W2C_0" departPos="2.10" departSpeed="0.00" departDelay="0.00" arrival="111.00" arrivalLane="C2E_0" arrivalPos="489.60" arrivalSpeed="12.79" duration="81.00" routeLength="997.90" waitingTime="0.00" waitingCount="0" stopTime="0.00" timeLoss="8.76" rerouteNo="0" devices="tripinfo_flow_off_W2E.0 routing_flow_off_W2E.0 emissions_flow_off_W2E.0" vType="moto" speedFactor="1.00" vaporized="">
        <emissions CO_abs="3617.98" CO2_abs="111026.23" HC_abs="1335.00" PMx_abs="27.04" NOx_abs="157.93" fuel_abs="36000.91" electricity_abs="0.00"/>
    </tripinfo>
    <tripinfo id="flow_off_S2N.0" depart="25.00" departLane="S2C_0" departPos="5.10" departSpeed="0.00" departDelay="0.00" arrival="114.00" arrivalLane="C2N_0" arrivalPos="489.60" arrivalSpeed="15.06" duration="89.00" routeLength="994.90" waitingTime="13.00" waitingCount="1" stopTime="0.00" timeLoss="25.67" rerouteNo="0" devices="tripinfo_flow_off_S2N.0 routing_flow_off_S2N.0 emissions_flow_off_S2N.0" vType="car" speedFactor="1.14" vaporized="">
        <emissions CO_abs="1431.64" CO2_abs="236965.63" HC_abs="9.60" PMx_abs="24.04" NOx_abs="83.72" fuel_abs="76821.13" electricity_abs="0.00"/>
    </tripinfo>
    <tripinfo id="flow_off_S2N.1" depart="28.00" departLane="S2C_0" departPos="5.10" departSpeed="0.00" departDelay="0.00" arrival="119.00" arrivalLane="C2N_0" arrivalPos="489.60" arrivalSpeed="13.33" duration="91.00" routeLength="994.90" waitingTime="5.00" waitingCount="1" stopTime="0.00" timeLoss="17.04" rerouteNo="0" devices="tripinfo_flow_off_S2N.1 routing_flow_off_S2N.1 emissions_flow_off_S2N.1" vType="car" speedFactor="0.98" vaporized="">
        <emissions CO_abs="1107.64" CO2_abs="217277.24" HC_abs="7.40" PMx_abs="22.53" NOx_abs="75.30" fuel_abs="70438.51" electricity_abs="0.00"/>
    </tripinfo>
    <tripinfo id="flow_off_N2S.1" depart="10.00" departLane="N2C_0" departPos="2.10" departSpeed="0.00" departDelay="0.00" arrival="122.00" arrivalLane="C2S_0" arrivalPos="489.60" arrivalSpeed="11.80" duration="112.00" routeLength="997.90" waitingTime="21.00" waitingCount="1" stopTime="0.00" timeLoss="31.92" rerouteNo="0" devices="tripinfo_flow_off_N2S.1 routing_flow_off_N2S.1 emissions_flow_off_N2S.1" vType="moto" speedFactor="0.90" vaporized="">
        <emissions CO_abs="3287.25" CO2_abs="154607.56" HC_abs="1970.15" PMx_abs="39.99" NOx_abs="180.38" fuel_abs="50132.67" electricity_abs="0.00"/>
    </tripinfo>
    <tripinfo id="flow_off_S2N.2" depart="31.00" departLane="S2C_0" departPos="2.10" departSpeed="0.00" departDelay="1.00" arrival="122.00" arrivalLane="C2N_0" arrivalPos="489.60" arrivalSpeed="12.13" duration="91.00" routeLength="997.90" waitingTime="3.00" waitingCount="1" stopTime="0.00" timeLoss="15.85" rerouteNo="0" devices="tripinfo_flow_off_S2N.2 routing_flow_off_S2N.2 emissions_flow_off_S2N.2" vType="moto" speedFactor="0.97" vaporized="">
        <emissions CO_abs="4119.36" CO2_abs="142960.02" HC_abs="1721.01" PMx_abs="34.54" NOx_abs="195.26" fuel_abs="46355.53" electricity_abs="0.00"/>
    </tripinfo>
    <tripinfo id="flow_off_N2S.2" depart="14.00" departLane="N2C_0" departPos="15.10" departSpeed="0.00" departDelay="3.00" arrival="123.00" arrivalLane="C2S_1" arrivalPos="489.60" arrivalSpeed="13.88" duration="109.00" routeLength="984.90" waitingTime="16.00" waitingCount="1" stopTime="0.00" timeLoss="38.13" rerouteNo="0" devices="tripinfo_flow_off_N2S.2 routing_flow_off_N2S.2 emissions_flow_off_N2S.2" vType="truck" speedFactor="1.01" vaporized="">
        <emissions CO_abs="149.01" CO2_abs="525299.56" HC_abs="12.50" PMx_abs="163.99" NOx_abs="239.51" fuel_abs="168824.27" electricity_abs="0.00"/>
    </tripinfo>
    <tripinfo id="flow_off_N2S.0" depart="3.00" departLane="N2C_0" departPos="12.10" departSpeed="0.00" departDelay="0.00" arrival="125.00" arrivalLane="C2S_0" arrivalPos="489.60" arrivalSpeed="13.29" duration="122.00" routeLength="987.90" waitingTime="28.00" waitingCount="1" stopTime="0.00" timeLoss="50.18" rerouteNo="0" devices="tripinfo_flow_off_N2S.0 routing_flow_off_N2S.0 emissions_flow_off_N2S.0" vType="bus" speedFactor="1.00" vaporized="">
        <emissions CO_abs="290.60" CO2_abs="1336817.80" HC_abs="24.42" PMx_abs="172.00" NOx_abs="554.32" fuel_abs="429610.74" electricity_abs="0.00"/>
    </tripinfo>
    <tripinfo id="flow_off_N2S.3" depart="20.00" departLane="N2C_0" departPos="5.10" departSpeed="0.00" departDelay="0.00" arrival="128.00" arrivalLane="C2S_0" arrivalPos="489.60" arrivalSpeed="12.25" duration="108.00" routeLength="994.90" waitingTime="12.00" waitingCount="1" stopTime="0.00" timeLoss="29.57" rerouteNo="0" devices="tripinfo_flow_off_N2S.3 routing_flow_off_N2S.3 emissions_flow_off_N2S.3" vType="car" speedFactor="0.92" vaporized="">
        <emissions CO_abs="999.43" CO2_abs="233575.30" HC_abs="6.68" PMx_abs="21.52" NOx_abs="80.84" fuel_abs="75722.20" electricity_abs="0.00"/>
    </tripinfo>
    <tripinfo id="flow_off_N2S.5" depart="32.00" departLane="N2C_0" departPos="5.10" departSpeed="0.00" departDelay="0.00" arrival="129.00" arrivalLane="C2S_1" arrivalPos="489.60" arrivalSpeed="12.00" duration="97.00" routeLength="994.90" waitingTime="3.00" waitingCount="1" stopTime="0.00" timeLoss="18.98" rerouteNo="0" devices="tripinfo_flow_off_N2S.5 routing_flow_off_N2S.5 emissions_flow_off_N2S.5" vType="car" speedFactor="0.92" vaporized="">
        <emissions CO_abs="1020.68" CO2_abs="211505.00" HC_abs="6.81" PMx_abs="19.79" NOx_abs="72.24" fuel_abs="68567.05" electricity_abs="0.00"/>
    </tripinfo>
    <tripinfo id="flow_off_N2S.4" depart="25.00" departLane="N2C_0" departPos="5.10" departSpeed="0.00" departDelay="0.00" arrival="130.00" arrivalLane="C2S_0" arrivalPos="489.60" arrivalSpeed="13.53" duration="105.00" routeLength="994.90" waitingTime="12.00" waitingCount="1" stopTime="0.00" timeLoss="30.96" rerouteNo="0" devices="tripinfo_flow_off_N2S.4 routing_flow_off_N2S.4 emissions_flow_off_N2S.4" vType="car" speedFactor="0.97" vaporized="">
        <emissions CO_abs="1140.80" CO2_abs="240090.96" HC_abs="7.61" PMx_abs="21.97" NOx_abs="82.99" fuel_abs="77834.38" electricity_abs="0.00"/>
    </tripinfo>
    <tripinfo id="flow_off_N2S.6" depart="54.00" departLane="N2C_0" departPos="5.10" departSpeed="0.00" departDelay="0.00" arrival="148.00" arrivalLane="C2S_0" arrivalPos="489.60" arrivalSpeed="10.99" duration="94.00" routeLength="994.90" waitingTime="0.00" waitingCount="0" stopTime="0.00" timeLoss="7.91" rerouteNo="0" devices="tripinfo_flow_off_N2S.6 routing_flow_off_N2S.6 emissions_flow_off_N2S.6" vType="car" speedFactor="0.83" vaporized="">
        <emissions CO_abs="766.70" CO2_abs="183687.79" HC_abs="5.13" PMx_abs="19.88" NOx_abs="63.15" fuel_abs="59549.34" electricity_abs="0.00"/>
    </tripinfo>
    <tripinfo id="flow_off_E2W.1" depart="51.00" departLane="E2C_0" departPos="5.10" departSpeed="0.00" departDelay="0.00" arrival="152.00" arrivalLane="C2W_0" arrivalPos="489.60" arrivalSpeed="14.81" duration="101.00" routeLength="994.90" waitingTime="23.00" waitingCount="1" stopTime="0.00" timeLoss="35.33" rerouteNo="0" devices="tripinfo_flow_off_E2W.1 routing_flow_off_E2W.1 emissions_flow_off_E2W.1" vType="car" speedFactor="1.09" vaporized="">
        <emissions CO_abs="1317.94" CO2_abs="244523.62" HC_abs="8.82" PMx_abs="22.26" NOx_abs="86.45" fuel_abs="79271.41" electricity_abs="0.00"/>
    </tripinfo>
    <tripinfo id="flow_off_W2E.2" depart="67.00" departLane="W2C_0" departPos="5.10" departSpeed="0.00" departDelay="0.00" arrival="157.00" arrivalLane="C2E_0" arrivalPos="489.60" arrivalSpeed="12.36" duration="90.00" routeLength="994.90" waitingTime="3.00" waitingCount="1" stopTime="0.00" timeLoss="15.27" rerouteNo="0" devices="tripinfo_flow_off_W2E.2 routing_flow_off_W2E.2 emissions_flow_off_W2E.2" vType="car" speedFactor="0.96" vaporized="">
        <emissions CO_abs="1052.00" CO2_abs="208818.64" HC_abs="7.04" PMx_abs="21.76" NOx_abs="71.60" fuel_abs="67696.26" electricity_abs="0.00"/>
    </tripinfo>
    <tripinfo id="flow_off_E2W.2" depart="57.00" departLane="E2C_0" departPos="12.10" departSpeed="0.00" departDelay="0.00" arrival="159.00" arrivalLane="C2W_1" arrivalPos="489.60" arrivalSpeed="13.46" duration="102.00" routeLength="987.90" waitingTime="13.00" waitingCount="1" stopTime="0.00" timeLoss="30.64" rerouteNo="0" devices="tripinfo_flow_off_E2W.2 routing_flow_off_E2W.2 emissions_flow_off_E2W.2" vType="bus" speedFactor="1.00" vaporized="">
        <emissions CO_abs="255.10" CO2_abs="1254202.54" HC_abs="22.39" PMx_abs="153.52" NOx_abs="497.31" fuel_abs="403059.00" electricity_abs="0.00"/>
    </tripinfo>
    <tripinfo id="flow_off_E2W.3" depart="65.00" departLane="E2C_0" departPos="5.10" departSpeed="0.00" departDelay="0.00" arrival="159.00" arrivalLane="C2W_0" arrivalPos="489.60" arrivalSpeed="13.13" duration="94.00" routeLength="994.90" waitingTime="9.00" waitingCount="1" stopTime="0.00" timeLoss="20.11" rerouteNo="0" devices="tripinfo_flow_off_E2W.3 routing_flow_off_E2W.3 emissions_flow_off_E2W.3" vType="car" speedFactor="0.98" vaporized="">
        <emissions CO_abs="1044.48" CO2_abs="216573.83" HC_abs="6.99" PMx_abs="22.37" NOx_abs="75.23" fuel_abs="70210.43" electricity_abs="0.00"/>
    </tripinfo>
    <tripinfo id="flow_off_W2E.1" depart="56.00" departLane="W2C_0" departPos="15.10" departSpeed="0.00" departDelay="0.00" arrival="160.00" arrivalLane="C2E_1" arrivalPos="489.60" arrivalSpeed="14.27" duration="104.00" routeLength="984.90" waitingTime="13.00" waitingCount="1" stopTime="0.00" timeLoss="34.12" rerouteNo="0" devices="tripinfo_flow_off_W2E.1 routing_flow_off_W2E.1 emissions_flow_off_W2E.1" vType="truck" speedFactor="1.03" vaporized="">
        <emissions CO_abs="146.71" CO2_abs="526031.29" HC_abs="12.33" PMx_abs="160.23" NOx_abs="242.74" fuel_abs="169060.06" electricity_abs="0.00"/>
    </tripinfo>
    <tripinfo id="flow_off_E2W.5" depart="85.00" departLane="E2C_0" departPos="5.10" departSpeed="0.00" departDelay="0.00" arrival="161.00" arrivalLane="C2W_0" arrivalPos="489.60" arrivalSpeed="14.32" duration="76.00" routeLength="994.90" waitingTime="0.00" waitingCount="0" stopTime="0.00" timeLoss="10.50" rerouteNo="0" devices="tripinfo_flow_off_E2W.5 routing_flow_off_E2W.5 emissions_flow_off_E2W.5" vType="car" speedFactor="1.11" vaporized="">
        <emissions CO_abs="1265.14" CO2_abs="197093.57" HC_abs="8.47" PMx_abs="22.94" NOx_abs="69.58" fuel_abs="63895.12" electricity_abs="0.00"/>
    </tripinfo>
    <tripinfo id="flow_off_E2W.4" depart="68.00" departLane="E2C_0" departPos="5.10" departSpeed="0.00" departDelay="2.00" arrival="163.00" arrivalLane="C2W_0" arrivalPos="489.60" arrivalSpeed="13.01" duration="95.00" routeLength="994.90" waitingTime="2.00" waitingCount="1" stopTime="0.00" timeLoss="21.34" rerouteNo="0" devices="tripinfo_flow_off_E2W.4 routing_flow_off_E2W.4 emissions_flow_off_E2W.4" vType="car" speedFactor="0.98" vaporized="">
        <emissions CO_abs="1055.46" CO2_abs="217799.60" HC_abs="7.05" PMx_abs="21.65" NOx_abs="75.46" fuel_abs="70607.77" electricity_abs="0.00"/>
    </tripinfo>
    <tripinfo id="flow_off_E2W.6" depart="95.00" departLane="E2C_0" departPos="5.10" departSpeed="0.00" departDelay="0.00" arrival="167.00" arrivalLane="C2W_0" arrivalPos="489.60" arrivalSpeed="13.85" duration="72.00" routeLength="994.90" waitingTime="0.00" waitingCount="0" stopTime="0.00" timeLoss="5.46" rerouteNo="0" devices="tripinfo_flow_off_E2W.6 routing_flow_off_E2W.6 emissions_flow_off_E2W.6" vType="car" speedFactor="1.08" vaporized="">
        <emissions CO_abs="1134.34" CO2_abs="178364.60" HC_abs="7.62" PMx_abs="22.37" NOx_abs="63.09" fuel_abs="57823.50" electricity_abs="0.00"/>
    </tripinfo>
    <tripinfo id="flow_off_W2E.3" depart="92.00" departLane="W2C_0" departPos="12.10" departSpeed="0.00" departDelay="0.00" arrival="172.00" arrivalLane="C2E_0" arrivalPos="489.60" arrivalSpeed="13.72" duration="80.00" routeLength="987.90" waitingTime="0.00" waitingCount="0" stopTime="0.00" timeLoss="8.75" rerouteNo="0" devices="tripinfo_flow_off_W2E.3 routing_flow_off_W2E.3 emissions_flow_off_W2E.3" vType="bus" speedFactor="1.00" vaporized="">
        <emissions CO_abs="194.86" CO2_abs="1024913.56" HC_abs="18.73" PMx_abs="129.08" NOx_abs="417.10" fuel_abs="329369.85" electricity_abs="0.00"/>
    </tripinfo>
    <tripinfo id="flow_off_N2S.9" depart="109.00" departLane="N2C_0" departPos="5.10" departSpeed="0.00" departDelay="0.00" arrival="195.00" arrivalLane="C2S_0" arrivalPos="489.60" arrivalSpeed="13.87" duration="86.00" routeLength="994.90" waitingTime="5.00" waitingCount="1" stopTime="0.00" timeLoss="17.59" rerouteNo="0" devices="tripinfo_flow_off_N2S.9 routing_flow_off_N2S.9 emissions_flow_off_N2S.9" vType="car" speedFactor="1.06" vaporized="">
        <emissions CO_abs="1113.84" CO2_abs="215277.46" HC_abs="7.49" PMx_abs="24.67" NOx_abs="74.63" fuel_abs="69790.21" electricity_abs="0.00"/>
    </tripinfo>
    <tripinfo id="flow_off_S2N.5" depart="88.00" departLane="S2C_0" departPos="5.10" departSpeed="0.00" departDelay="2.00" arrival="197.00" arrivalLane="C2N_0" arrivalPos="489.60" arrivalSpeed="12.91" duration="109.00" routeLength="994.90" waitingTime="21.00" waitingCount="1" stopTime="0.00" timeLoss="34.51" rerouteNo="0" devices="tripinfo_flow_off_S2N.5 routing_flow_off_S2N.5 emissions_flow_off_S2N.5" vType="car" speedFactor="0.97" vaporized="">
        <emissions CO_abs="1040.47" CO2_abs="238114.89" HC_abs="6.96" PMx_abs="22.24" NOx_abs="83.80" fuel_abs="77194.02" electricity_abs="0.00"/>
    </tripinfo>
    <tripinfo id="flow_off_N2S.7" depart="90.00" departLane="N2C_0" departPos="12.10" departSpeed="0.00" departDelay="0.00" arrival="198.00" arrivalLane="C2S_1" arrivalPos="489.60" arrivalSpeed="13.54" duration="108.00" routeLength="987.90" waitingTime="18.00" waitingCount="1" stopTime="0.00" timeLoss="36.36" rerouteNo="0" devices="tripinfo_flow_off_N2S.7 routing_flow_off_N2S.7 emissions_flow_off_N2S.7" vType="bus" speedFactor="1.00" vaporized="">
        <emissions CO_abs="273.31" CO2_abs="1310903.56" HC_abs="23.72" PMx_abs="166.16" NOx_abs="536.12" fuel_abs="421280.92" electricity_abs="0.00"/>
    </tripinfo>
    <tripinfo id="flow_off_S2N.6" depart="92.00" departLane="S2C_0" departPos="2.10" departSpeed="0.00" departDelay="0.00" arrival="198.00" arrivalLane="C2N_1" arrivalPos="489.60" arrivalSpeed="12.47" duration="106.00" routeLength="997.90" waitingTime="19.00" waitingCount="1" stopTime="0.00" timeLoss="33.94" rerouteNo="0" devices="tripinfo_flow_off_S2N.6 routing_flow_off_S2N.6 emissions_flow_off_S2N.6" vType="moto" speedFactor="1.00" vaporized="">
        <emissions CO_abs="3847.05" CO2_abs="148054.52" HC_abs="1850.52" PMx_abs="37.04" NOx_abs="187.28" fuel_abs="48007.63" electricity_abs="0.00"/>
    </tripinfo>
    <tripinfo id="flow_off_N2S.8" depart="101.00" departLane="N2C_0" departPos="2.10" departSpeed="0.00" departDelay="0.00" arrival="198.00" arrivalLane="C2S_0" arrivalPos="489.60" arrivalSpeed="11.53" duration="97.00" routeLength="997.90" waitingTime="8.00" waitingCount="1" stopTime="0.00" timeLoss="19.03" rerouteNo="0" devices="tripinfo_flow_off_N2S.8 routing_flow_off_N2S.8 emissions_flow_off_N2S.8" vType="moto" speedFactor="0.93" vaporized="">
        <emissions CO_abs="3362.81" CO2_abs="134381.51" HC_abs="1659.18" PMx_abs="33.61" NOx_abs="169.77" fuel_abs="43574.09" electricity_abs="0.00"/>
    </tripinfo>
    <tripinfo id="flow_off_S2N.3" depart="76.00" departLane="S2C_0" departPos="5.10" departSpeed="0.00" departDelay="0.00" arrival="201.00" arrivalLane="C2N_0" arrivalPos="489.60" arrivalSpeed="12.02" duration="125.00" routeLength="994.90" waitingTime="29.00" waitingCount="1" stopTime="0.00" timeLoss="41.67" rerouteNo="0" devices="tripinfo_flow_off_S2N.3 routing_flow_off_S2N.3 emissions_flow_off_S2N.3" vType="car" speedFactor="0.87" vaporized="">
        <emissions CO_abs="934.55" CO2_abs="250698.50" HC_abs="6.24" PMx_abs="20.56" NOx_abs="87.52" fuel_abs="81273.48" electricity_abs="0.00"/>
    </tripinfo>
    <tripinfo id="flow_off_S2N.7" depart="116.00" departLane="S2C_0" departPos="5.10" departSpeed="0.00" departDelay="0.00" arrival="203.00" arrivalLane="C2N_1" arrivalPos="489.60" arrivalSpeed="11.60" duration="87.00" routeLength="994.90" waitingTime="0.00" waitingCount="0" stopTime="0.00" timeLoss="6.93" rerouteNo="0" devices="tripinfo_flow_off_S2N.7 routing_flow_off_S2N.7 emissions_flow_off_S2N.7" vType="car" speedFactor="0.90" vaporized="">
        <emissions CO_abs="903.40" CO2_abs="181050.22" HC_abs="6.04" PMx_abs="20.07" NOx_abs="62.58" fuel_abs="58694.19" electricity_abs="0.00"/>
    </tripinfo>
    <tripinfo id="flow_off_N2S.10" depart="127.00" departLane="N2C_0" departPos="5.10" departSpeed="0.00" departDelay="0.00" arrival="203.00" arrivalLane="C2S_0" arrivalPos="489.60" arrivalSpeed="13.22" duration="76.00" routeLength="994.90" waitingTime="0.00" waitingCount="0" stopTime="0.00" timeLoss="6.67" rerouteNo="0" devices="tripinfo_flow_off_N2S.10 routing_flow_off_N2S.10 emissions_flow_off_N2S.10" vType="car" speedFactor="1.03" vaporized="">
        <emissions CO_abs="1140.90" CO2_abs="181918.63" HC_abs="7.64" PMx_abs="20.82" NOx_abs="63.97" fuel_abs="58975.60" electricity_abs="0.00"/>
    </tripinfo>
    <tripinfo id="flow_off_S2N.4" depart="84.00" departLane="S2C_0" departPos="15.10" departSpeed="0.00" departDelay="0.00" arrival="204.00" arrivalLane="C2N_0" arrivalPos="489.60" arrivalSpeed="12.78" duration="120.00" routeLength="984.90" waitingTime="21.00" waitingCount="1" stopTime="0.00" timeLoss="42.98" rerouteNo="0" devices="tripinfo_flow_off_S2N.4 routing_flow_off_S2N.4 emissions_flow_off_S2N.4" vType="truck" speedFactor="0.92" vaporized="">
        <emissions CO_abs="158.22" CO2_abs="508800.29" HC_abs="13.04" PMx_abs="179.11" NOx_abs="238.21" fuel_abs="163520.29" electricity_abs="0.00"/>
    </tripinfo>
    <tripinfo id="flow_off_E2W.9" depart="149.00" departLane="E2C_0" departPos="5.10" departSpeed="0.00" departDelay="2.00" arrival="232.00" arrivalLane="C2W_0" arrivalPos="489.60" arrivalSpeed="13.02" duration="83.00" routeLength="994.90" waitingTime="1.00" waitingCount="1" stopTime="0.00" timeLoss="13.16" rerouteNo="0" devices="tripinfo_flow_off_E2W.9 routing_flow_off_E2W.9 emissions_flow_off_E2W.9" vType="car" speedFactor="1.03" vaporized="">
        <emissions CO_abs="1242.72" CO2_abs="213365.31" HC_abs="8.31" PMx_abs="22.02" NOx_abs="73.62" fuel_abs="69170.12" electricity_abs="0.00"/>
    </tripinfo>
    <tripinfo id="flow_off_E2W.7" depart="139.00" departLane="E2C_0" departPos="5.10" departSpeed="0.00" departDelay="0.00" arrival="236.00" arrivalLane="C2W_0" arrivalPos="489.60" arrivalSpeed="12.26" duration="97.00" routeLength="994.90" waitingTime="7.00" waitingCount="1" stopTime="0.00" timeLoss="19.25" rerouteNo="0" devices="tripinfo_flow_off_E2W.7 routing_flow_off_E2W.7 emissions_flow_off_E2W.7" vType="car" speedFactor="0.92" vaporized="">
        <emissions CO_abs="935.83" CO2_abs="211812.59" HC_abs="6.26" PMx_abs="21.62" NOx_abs="72.77" fuel_abs="68666.97" electricity_abs="0.00"/>
    </tripinfo>
    <tripinfo id="flow_off_E2W.10" depart="152.00" departLane="E2C_0" departPos="5.10" departSpeed="0.00" departDelay="4.00" arrival="237.00" arrivalLane="C2W_1" arrivalPos="489.60" arrivalSpeed="12.72" duration="85.00" routeLength="994.90" waitingTime="0.00" waitingCount="0" stopTime="0.00" timeLoss="9.22" rerouteNo="0" devices="tripinfo_flow_off_E2W.10 routing_flow_off_E2W.10 emissions_flow_off_E2W.10" vType="car" speedFactor="0.95" vaporized="">
        <emissions CO_abs="1033.28" CO2_abs="193494.67" HC_abs="6.90" PMx_abs="20.83" NOx_abs="66.63" fuel_abs="62728.43" electricity_abs="0.00"/>
    </tripinfo>
    <tripinfo id="flow_off_E2W.8" depart="146.00" departLane="E2C_0" departPos="5.10" departSpeed="0.00" departDelay="0.00" arrival="238.00" arrivalLane="C2W_0" arrivalPos="489.60" arrivalSpeed="12.87" duration="92.00" routeLength="994.90" waitingTime="3.00" waitingCount="1" stopTime="0.00" timeLoss="16.69" rerouteNo="0" devices="tripinfo_flow_off_E2W.8 routing_flow_off_E2W.8 emissions_flow_off_E2W.8" vType="car" speedFactor="0.96" vaporized="">
        <emissions CO_abs="1219.94" CO2_abs="229796.40" HC_abs="8.14" PMx_abs="22.19" NOx_abs="78.76" fuel_abs="74496.89" electricity_abs="0.00"/>
    </tripinfo>
    <tripinfo id="flow_off_E2W.11" depart="154.00" departLane="E2C_0" departPos="2.10" departSpeed="0.00" departDelay="0.00" arrival="250.00" arrivalLane="C2W_0" arrivalPos="489.60" arrivalSpeed="10.21" duration="96.00" routeLength="997.90" waitingTime="0.00" waitingCount="0" stopTime="0.00" timeLoss="9.67" rerouteNo="0" devices="tripinfo_flow_off_E2W.11 routing_flow_off_E2W.11 emissions_flow_off_E2W.11" vType="moto" speedFactor="0.83" vaporized="">
        <emissions CO_abs="2727.33" CO2_abs="123642.99" HC_abs="1557.10" PMx_abs="32.23" NOx_abs="148.85" fuel_abs="40092.26" electricity_abs="0.00"/>
    </tripinfo>
    <tripinfo id="flow_off_E2W.12" depart="177.00" departLane="E2C_0" departPos="5.10" departSpeed="0.00" departDelay="0.00" arrival="250.00" arrivalLane="C2W_1" arrivalPos="489.60" arrivalSpeed="13.61" duration="73.00" routeLength="994.90" waitingTime="0.00" waitingCount="0" stopTime="0.00" timeLoss="5.90" rerouteNo="0" devices="tripinfo_flow_off_E2W.12 routing_flow_off_E2W.12 emissions_flow_off_E2W.12" vType="car" speedFactor="1.07" vaporized="">
        <emissions CO_abs="1110.39" CO2_abs="179184.24" HC_abs="7.46" PMx_abs="22.35" NOx_abs="63.25" fuel_abs="58089.22" electricity_abs="0.00"/>
    </tripinfo>
    <tripinfo id="flow_off_N2S.11" depart="154.00" departLane="N2C_0" departPos="5.10" departSpeed="0.00" departDelay="0.00" arrival="265.00" arrivalLane="C2S_0" arrivalPos="489.60" arrivalSpeed="15.84" duration="111.00" routeLength="994.90" waitingTime="39.00" waitingCount="1" stopTime="0.00" timeLoss="52.16" rerouteNo="0" devices="tripinfo_flow_off_N2S.11 routing_flow_off_N2S.11 emissions_flow_off_N2S.11" vType="car" speedFactor="1.23" vaporized="">
        <emissions CO_abs="1760.72" CO2_abs="288291.00" HC_abs="11.78" PMx_abs="23.38" NOx_abs="104.63" fuel_abs="93460.19" electricity_abs="0.00"/>
    </tripinfo>
    <tripinfo id="flow_off_N2S.12" depart="175.00" departLane="N2C_0" departPos="5.10" departSpeed="0.00" departDelay="0.00" arrival="269.00" arrivalLane="C2S_0" arrivalPos="489.60" arrivalSpeed="14.29" duration="94.00" routeLength="994.90" waitingTime="16.00" waitingCount="1" stopTime="0.00" timeLoss="28.40" rerouteNo="0" devices="tripinfo_flow_off_N2S.12 routing_flow_off_N2S.12 emissions_flow_off_N2S.12" vType="car" speedFactor="1.11" vaporized="">
        <emissions CO_abs="1354.83" CO2_abs="237761.21" HC_abs="9.06" PMx_abs="23.13" NOx_abs="84.08" fuel_abs="77079.04" electricity_abs="0.00"/>
    </tripinfo>
    <tripinfo id="flow_off_S2N.9" depart="172.00" departLane="S2C_0" departPos="5.10" departSpeed="0.00" departDelay="0.00" arrival="271.00" arrivalLane="C2N_0" arrivalPos="489.60" arrivalSpeed="13.02" duration="99.00" routeLength="994.90" waitingTime="15.00" waitingCount="1" stopTime="0.00" timeLoss="28.37" rerouteNo="0" devices="tripinfo_flow_off_S2N.9 routing_flow_off_S2N.9 emissions_flow_off_S2N.9" vType="car" speedFactor="1.02" vaporized="">
        <emissions CO_abs="1170.63" CO2_abs="230423.45" HC_abs="7.83" PMx_abs="22.02" NOx_abs="80.51" fuel_abs="74700.32" electricity_abs="0.00"/>
    </tripinfo>
    <tripinfo id="flow_off_S2N.10" depart="198.00" departLane="S2C_0" departPos="5.10" departSpeed="0.00" departDelay="0.00" arrival="272.00" arrivalLane="C2N_1" arrivalPos="489.60" arrivalSpeed="14.63" duration="74.00" routeLength="994.90" waitingTime="0.00" waitingCount="0" stopTime="0.00" timeLoss="6.00" rerouteNo="0" devices="tripinfo_flow_off_S2N.10 routing_flow_off_S2N.10 emissions_flow_off_S2N.10" vType="car" speedFactor="1.06" vaporized="">
        <emissions CO_abs="1161.84" CO2_abs="185652.69" HC_abs="7.80" PMx_abs="22.65" NOx_abs="65.54" fuel_abs="60186.19" electricity_abs="0.00"/>
    </tripinfo>
    <tripinfo id="flow_off_N2S.13" depart="185.00" departLane="N2C_0" departPos="2.10" departSpeed="0.00" departDelay="0.00" arrival="273.00" arrivalLane="C2S_0" arrivalPos="489.60" arrivalSpeed="13.47" duration="88.00" routeLength="997.90" waitingTime="6.00" waitingCount="1" stopTime="0.00" timeLoss="18.35" rerouteNo="0" devices="tripinfo_flow_off_N2S.13 routing_flow_off_N2S.13 emissions_flow_off_N2S.13" vType="moto" speedFactor="1.04" vaporized="">
        <emissions CO_abs="4278.57" CO2_abs="131717.64" HC_abs="1556.89" PMx_abs="31.15" NOx_abs="186.82" fuel_abs="42710.07" electricity_abs="0.00"/>
    </tripinfo>
    <tripinfo id="flow_off_S2N.8" depart="152.00" departLane="S2C_0" departPos="5.10" departSpeed="0.00" departDelay="0.00" arrival="274.00" arrivalLane="C2N_0" arrivalPos="489.60" arrivalSpeed="12.78" duration="122.00" routeLength="994.90" waitingTime="34.00" waitingCount="1" stopTime="0.00" timeLoss="46.77" rerouteNo="0" devices="tripinfo_flow_off_S2N.8 routing_flow_off_S2N.8 emissions_flow_off_S2N.8" vType="car" speedFactor="0.96" vaporized="">
        <emissions CO_abs="1027.94" CO2_abs="257359.58" HC_abs="6.88" PMx_abs="22.04" NOx_abs="91.03" fuel_abs="83432.97" electricity_abs="0.00"/>
    </tripinfo>
    <tripinfo id="flow_off_N2S.14" depart="205.00" departLane="N2C_0" departPos="5.10" departSpeed="0.00" departDelay="0.00" arrival="286.00" arrivalLane="C2S_0" arrivalPos="489.60" arrivalSpeed="13.36" duration="81.00" routeLength="994.90" waitingTime="0.00" waitingCount="0" stopTime="0.00" timeLoss="6.72" rerouteNo="0" devices="tripinfo_flow_off_N2S.14 routing_flow_off_N2S.14 emissions_flow_off_N2S.14" vType="car" speedFactor="0.98" vaporized="">
        <emissions CO_abs="985.44" CO2_abs="180436.63" HC_abs="6.61" PMx_abs="21.27" NOx_abs="63.03" fuel_abs="58495.27" electricity_abs="0.00"/>
    </tripinfo>
    <tripinfo id="flow_off_N2S.15" depart="221.00" departLane="N2C_0" departPos="5.10" departSpeed="0.00" departDelay="0.00" arrival="303.00" arrivalLane="C2S_0" arrivalPos="489.60" arrivalSpeed="13.08" duration="82.00" routeLength="994.90" waitingTime="0.00" waitingCount="0" stopTime="0.00" timeLoss="7.15" rerouteNo="0" devices="tripinfo_flow_off_N2S.15 routing_flow_off_N2S.15 emissions_flow_off_N2S.15" vType="car" speedFactor="0.96" vaporized="">
        <emissions CO_abs="942.86" CO2_abs="178088.43" HC_abs="6.32" PMx_abs="20.69" NOx_abs="62.10" fuel_abs="57734.02" electricity_abs="0.00"/>
    </tripinfo>
    <tripinfo id="flow_off_E2W.14" depart="214.00" departLane="E2C_0" departPos="2.10" departSpeed="0.00" departDelay="0.00" arrival="304.00" arrivalLane="C2W_0" arrivalPos="489.60" arrivalSpeed="14.64" duration="90.00" routeLength="997.90" waitingTime="16.00" waitingCount="1" stopTime="0.00" timeLoss="27.61" rerouteNo="0" devices="tripinfo_flow_off_E2W.14 routing_flow_off_E2W.14 emissions_flow_off_E2W.14" vType="moto" speedFactor="1.16" vaporized="">
        <emissions CO_abs="5433.62" CO2_abs="152599.20" HC_abs="1851.05" PMx_abs="37.19" NOx_abs="213.76" fuel_abs="49481.19" electricity_abs="0.00"/>
    </tripinfo>
    <tripinfo id="flow_off_E2W.13" depart="190.00" departLane="E2C_0" departPos="5.10" departSpeed="0.00" departDelay="0.00" arrival="308.00" arrivalLane="C2W_0" arrivalPos="489.60" arrivalSpeed="14.04" duration="118.00" routeLength="994.90" waitingTime="38.00" waitingCount="1" stopTime="0.00" timeLoss="49.24" rerouteNo="0" devices="tripinfo_flow_off_E2W.13 routing_flow_off_E2W.13 emissions_flow_off_E2W.13" vType="car" speedFactor="1.05" vaporized="">
        <emissions CO_abs="1310.77" CO2_abs="273355.59" HC_abs="8.77" PMx_abs="22.97" NOx_abs="97.71" fuel_abs="88618.59" electricity_abs="0.00"/>
    </tripinfo>