<?xml version="1.0" encoding="UTF-8"?>

<!-- generated on 2026-05-03T08:48:52.952411+07:00 by Eclipse SUMO libsumo 1.26.0
<libsumoConfiguration xmlns:xsi="http://www.w3.org/2001/XMLSchema-instance" xsi:noNamespaceSchemaLocation="http://sumo.dlr.de/xsd/libsumoConfiguration.xsd">

    <input>
        <net-file value="sumo/network.net.xml"/>
        <route-files value="sumo/routes.rou.xml"/>
        <additional-files value="sumo/tls.add.xml,sumo/traffic.add.xml"/>
    </input>

    <output>
        <tripinfo-output value="C:\Users\DELL\Downloads\project\runs\exp_20260503_080746\evaluation\tripinfo_rl.xml"/>
        <tripinfo-output.write-unfinished value="true"/>
    </output>

    <time>
        <begin value="0"/>
        <end value="7200"/>
    </time>

    <processing>
        <time-to-teleport value="300"/>
        <waiting-time-memory value="10000"/>
    </processing>

    <report>
        <verbose value="false"/>
        <no-warnings value="true"/>
        <no-step-log value="true"/>
    </report>

    <emissions>
        <device.emissions.probability value="1.0"/>
    </emissions>

    <random_number>
        <seed value="41"/>
    </random_number>

</libsumoConfiguration>
-->

<tripinfos xmlns:xsi="http://www.w3.org/2001/XMLSchema-instance" xsi:noNamespaceSchemaLocation="http://sumo.dlr.de/xsd/tripinfo_file.xsd">
    <tripinfo id="flow_off_E2W.1" depart="3.00" departLane="E2C_0" departPos="5.10" departSpeed="0.00" departDelay="2.00" arrival="77.00" arrivalLane="C2W_0" arrivalPos="489.60" arrivalSpeed="13.60" duration="74.00" routeLength="994.90" waitingTime="0.00" waitingCount="0" stopTime="0.00" timeLoss="7.05" rerouteNo="0" devices="tripinfo_flow_off_E2W.1 routing_flow_off_E2W.1 emissions_flow_off_E2W.1" vType="car" speedFactor="1.07" vaporized="">
        <emissions CO_abs="1068.25" CO2_abs="180794.56" HC_abs="7.19" PMx_abs="23.45" NOx_abs="63.97" fuel_abs="58611.34" electricity_abs="0.00"/>
    </tripinfo>
    <tripinfo id="flow_off_E2W.0" depart="0.00" departLane="E2C_0" departPos="5.10" departSpeed="0.00" departDelay="0.00" arrival="83.00" arrivalLane="C2W_0" arrivalPos="489.60" arrivalSpeed="12.10" duration="83.00" routeLength="994.90" waitingTime="0.00" waitingCount="0" stopTime="0.00" timeLoss="6.86" rerouteNo="0" devices="tripinfo_flow_off_E2W.0 routing_flow_off_E2W.0 emissions_flow_off_E2W.0" vType="car" speedFactor="0.95" vaporized="">
        <emissions CO_abs="1029.77" CO2_abs="187597.41" HC_abs="6.89" PMx_abs="20.87" NOx_abs="65.23" fuel_abs="60816.65" electricity_abs="0.00"/>
    </tripinfo>
    <tripinfo id="flow_off_S2N.0" depart="8.00" departLane="S2C_0" departPos="2.10" departSpeed="0.00" departDelay="0.00" arrival="98.00" arrivalLane="C2N_0" arrivalPos="489.60" arrivalSpeed="10.93" duration="90.00" routeLength="997.90" waitingTime="1.00" waitingCount="1" stopTime="0.00" timeLoss="12.22" rerouteNo="0" devices="tripinfo_flow_off_S2N.0 routing_flow_off_S2N.0 emissions_flow_off_S2N.0" vType="moto" speedFactor="0.93" vaporized="">
        <emissions CO_abs="3487.77" CO2_abs="128623.43" HC_abs="1544.64" PMx_abs="31.51" NOx_abs="170.74" fuel_abs="41706.92" electricity_abs="0.00"/>
    </tripinfo>
    <tripinfo id="flow_off_N2S.0" depart="32.00" departLane="N2C_0" departPos="2.10" departSpeed="0.00" departDelay="0.00" arrival="126.00" arrivalLane="C2S_0" arrivalPos="489.60" arrivalSpeed="13.36" duration="94.00" routeLength="997.90" waitingTime="12.00" waitingCount="1" stopTime="0.00" timeLoss="23.20" rerouteNo="0" devices="tripinfo_flow_off_N2S.0 routing_flow_off_N2S.0 emissions_flow_off_N2S.0" vType="moto" speedFactor="1.02" vaporized="">
        <emissions CO_abs="4175.65" CO2_abs="142281.09" HC_abs="1740.05" PMx_abs="35.08" NOx_abs="189.80" fuel_abs="46135.52" electricity_abs="0.00"/>
    </tripinfo>
    <tripinfo id="flow_off_N2S.1" depart="42.00" departLane="N2C_0" departPos="2.10" departSpeed="0.00" departDelay="0.00" arrival="129.00" arrivalLane="C2S_0" arrivalPos="489.60" arrivalSpeed="13.20" duration="87.00" routeLength="997.90" waitingTime="1.00" waitingCount="1" stopTime="0.00" timeLoss="11.73" rerouteNo="0" devices="tripinfo_flow_off_N2S.1 routing_flow_off_N2S.1 emissions_flow_off_N2S.1" vType="moto" speedFactor="0.96" vaporized="">
        <emissions CO_abs="3919.28" CO2_abs="130311.26" HC_abs="1520.98" PMx_abs="30.53" NOx_abs="184.43" fuel_abs="42254.00" electricity_abs="0.00"/>
    </tripinfo>
    <tripinfo id="flow_off_N2S.4" depart="71.00" departLane="N2C_0" departPos="5.10" departSpeed="0.00" departDelay="2.00" arrival="155.00" arrivalLane="C2S_0" arrivalPos="489.60" arrivalSpeed="14.74" duration="84.00" routeLength="994.90" waitingTime="6.00" waitingCount="1" stopTime="0.00" timeLoss="18.84" rerouteNo="0" devices="tripinfo_flow_off_N2S.4 routing_flow_off_N2S.4 emissions_flow_off_N2S.4" vType="car" speedFactor="1.11" vaporized="">
        <emissions CO_abs="1456.02" CO2_abs="230581.46" HC_abs="9.74" PMx_abs="23.14" NOx_abs="81.03" fuel_abs="74751.29" electricity_abs="0.00"/>
    </tripinfo>
    <tripinfo id="flow_off_N2S.6" depart="83.00" departLane="N2C_0" departPos="2.10" departSpeed="0.00" departDelay="0.00" arrival="156.00" arrivalLane="C2S_1" arrivalPos="489.60" arrivalSpeed="15.98" duration="73.00" routeLength="997.90" waitingTime="0.00" waitingCount="0" stopTime="0.00" timeLoss="11.45" rerouteNo="0" devices="tripinfo_flow_off_N2S.6 routing_flow_off_N2S.6 emissions_flow_off_N2S.6" vType="moto" speedFactor="1.18" vaporized="">
        <emissions CO_abs="5670.22" CO2_abs="131435.73" HC_abs="1481.13" PMx_abs="29.09" NOx_abs="213.29" fuel_abs="42618.38" electricity_abs="0.00"/>
    </tripinfo>
    <tripinfo id="flow_off_N2S.2" depart="62.00" departLane="N2C_0" departPos="5.10" departSpeed="0.00" departDelay="0.00" arrival="163.00" arrivalLane="C2S_0" arrivalPos="489.60" arrivalSpeed="12.65" duration="101.00" routeLength="994.90" waitingTime="9.00" waitingCount="1" stopTime="0.00" timeLoss="22.00" rerouteNo="0" devices="tripinfo_flow_off_N2S.2 routing_flow_off_N2S.2 emissions_flow_off_N2S.2" vType="car" speedFactor="0.92" vaporized="">
        <emissions CO_abs="1023.21" CO2_abs="220230.04" HC_abs="6.83" PMx_abs="20.59" NOx_abs="75.62" fuel_abs="71395.73" electricity_abs="0.00"/>
    </tripinfo>
    <tripinfo id="flow_off_N2S.5" depart="76.00" departLane="N2C_0" departPos="5.10" departSpeed="0.00" departDelay="0.00" arrival="164.00" arrivalLane="C2S_1" arrivalPos="489.60" arrivalSpeed="12.68" duration="88.00" routeLength="994.90" waitingTime="0.00" waitingCount="0" stopTime="0.00" timeLoss="13.21" rerouteNo="0" devices="tripinfo_flow_off_N2S.5 routing_flow_off_N2S.5 emissions_flow_off_N2S.5" vType="car" speedFactor="0.96" vaporized="">
        <emissions CO_abs="1057.37" CO2_abs="206938.34" HC_abs="7.07" PMx_abs="21.71" NOx_abs="70.66" fuel_abs="67086.64" electricity_abs="0.00"/>
    </tripinfo>
    <tripinfo id="flow_off_N2S.3" depart="68.00" departLane="N2C_0" departPos="5.10" departSpeed="0.00" departDelay="0.00" arrival="165.00" arrivalLane="C2S_0" arrivalPos="489.60" arrivalSpeed="12.48" duration="97.00" routeLength="994.90" waitingTime="5.00" waitingCount="1" stopTime="0.00" timeLoss="17.23" rerouteNo="0" devices="tripinfo_flow_off_N2S.3 routing_flow_off_N2S.3 emissions_flow_off_N2S.3" vType="car" speedFactor="0.91" vaporized="">
        <emissions CO_abs="1001.34" CO2_abs="218254.52" HC_abs="6.70" PMx_abs="21.97" NOx_abs="75.15" fuel_abs="70755.27" electricity_abs="0.00"/>
    </tripinfo>
    <tripinfo id="flow_off_E2W.2" depart="82.00" departLane="E2C_0" departPos="2.10" departSpeed="0.00" departDelay="0.00" arrival="167.00" arrivalLane="C2W_0" arrivalPos="489.60" arrivalSpeed="17.27" duration="85.00" routeLength="997.90" waitingTime="18.00" waitingCount="1" stopTime="0.00" timeLoss="27.21" rerouteNo="0" devices="tripinfo_flow_off_E2W.2 routing_flow_off_E2W.2 emissions_flow_off_E2W.2" vType="moto" speedFactor="1.25" vaporized="">
        <emissions CO_abs="6469.24" CO2_abs="154703.23" HC_abs="1844.84" PMx_abs="36.28" NOx_abs="233.46" fuel_abs="50163.19" electricity_abs="0.00"/>
    </tripinfo>
    <tripinfo id="flow_off_S2N.1" depart="78.00" departLane="S2C_0" departPos="2.10" departSpeed="0.00" departDelay="0.00" arrival="173.00" arrivalLane="C2N_0" arrivalPos="489.60" arrivalSpeed="11.15" duration="95.00" routeLength="997.90" waitingTime="0.00" waitingCount="0" stopTime="0.00" timeLoss="9.10" rerouteNo="0" devices="tripinfo_flow_off_S2N.1 routing_flow_off_S2N.1 emissions_flow_off_S2N.1" vType="moto" speedFactor="0.84" vaporized="">
        <emissions CO_abs="2888.32" CO2_abs="125089.20" HC_abs="1555.29" PMx_abs="32.01" NOx_abs="155.42" fuel_abs="40561.11" electricity_abs="0.00"/>
    </tripinfo>
    <tripinfo id="flow_off_E2W.3" depart="96.00" departLane="E2C_0" departPos="2.10" departSpeed="0.00" departDelay="0.00" arrival="178.00" arrivalLane="C2W_0" arrivalPos="489.60" arrivalSpeed="12.56" duration="82.00" routeLength="997.90" waitingTime="0.00" waitingCount="0" stopTime="0.00" timeLoss="7.41" rerouteNo="0" devices="tripinfo_flow_off_E2W.3 routing_flow_off_E2W.3 emissions_flow_off_E2W.3" vType="moto" speedFactor="0.97" vaporized="">
        <emissions CO_abs="3802.03" CO2_abs="117081.27" HC_abs="1397.44" PMx_abs="28.03" NOx_abs="169.82" fuel_abs="37964.21" electricity_abs="0.00"/>
    </tripinfo>
    <tripinfo id="flow_off_W2E.0" depart="87.00" departLane="W2C_0" departPos="5.10" departSpeed="0.00" departDelay="0.00" arrival="184.00" arrivalLane="C2E_0" arrivalPos="489.60" arrivalSpeed="10.61" duration="97.00" routeLength="994.90" waitingTime="0.00" waitingCount="0" stopTime="0.00" timeLoss="8.25" rerouteNo="0" devices="tripinfo_flow_off_W2E.0 routing_flow_off_W2E.0 emissions_flow_off_W2E.0" vType="car" speedFactor="0.81" vaporized="">
        <emissions CO_abs="733.68" CO2_abs="186187.79" HC_abs="4.91" PMx_abs="20.26" NOx_abs="64.04" fuel_abs="60359.85" electricity_abs="0.00"/>
    </tripinfo>
    <tripinfo id="flow_off_W2E.1" depart="94.00" departLane="W2C_0" departPos="5.10" departSpeed="0.00" departDelay="0.00" arrival="186.00" arrivalLane="C2E_0" arrivalPos="489.60" arrivalSpeed="10.94" duration="92.00" routeLength="994.90" waitingTime="0.00" waitingCount="0" stopTime="0.00" timeLoss="6.92" rerouteNo="0" devices="tripinfo_flow_off_W2E.1 routing_flow_off_W2E.1 emissions_flow_off_W2E.1" vType="car" speedFactor="0.84" vaporized="">
        <emissions CO_abs="707.89" CO2_abs="183173.92" HC_abs="4.75" PMx_abs="22.04" NOx_abs="63.67" fuel_abs="59382.90" electricity_abs="0.00"/>
    </tripinfo>
    <tripinfo id="flow_off_N2S.7" depart="103.00" departLane="N2C_0" departPos="5.10" departSpeed="0.00" departDelay="0.00" arrival="190.00" arrivalLane="C2S_0" arrivalPos="489.60" arrivalSpeed="13.90" duration="87.00" routeLength="994.90" waitingTime="5.00" waitingCount="1" stopTime="0.00" timeLoss="16.78" rerouteNo="0" devices="tripinfo_flow_off_N2S.7 routing_flow_off_N2S.7 emissions_flow_off_N2S.7" vType="car" speedFactor="1.03" vaporized="">
        <emissions CO_abs="1165.24" CO2_abs="218987.55" HC_abs="7.81" PMx_abs="23.95" NOx_abs="76.08" fuel_abs="70992.96" electricity_abs="0.00"/>
    </tripinfo>
    <tripinfo id="flow_off_N2S.8" depart="111.00" departLane="N2C_0" departPos="2.10" departSpeed="0.00" departDelay="0.00" arrival="190.00" arrivalLane="C2S_1" arrivalPos="489.60" arrivalSpeed="13.02" duration="79.00" routeLength="997.90" waitingTime="0.00" waitingCount="0" stopTime="0.00" timeLoss="8.21" rerouteNo="0" devices="tripinfo_flow_off_N2S.8 routing_flow_off_N2S.8 emissions_flow_off_N2S.8" vType="moto" speedFactor="1.02" vaporized="">
        <emissions CO_abs="3752.36" CO2_abs="106897.19" HC_abs="1261.16" PMx_abs="25.12" NOx_abs="160.13" fuel_abs="34661.89" electricity_abs="0.00"/>
    </tripinfo>
    <tripinfo id="flow_off_N2S.10" depart="117.00" departLane="N2C_0" departPos="2.10" departSpeed="0.00" departDelay="0.00" arrival="191.00" arrivalLane="C2S_1" arrivalPos="489.60" arrivalSpeed="14.83" duration="74.00" routeLength="997.90" waitingTime="0.00" waitingCount="0" stopTime="0.00" timeLoss="8.30" rerouteNo="0" devices="tripinfo_flow_off_N2S.10 routing_flow_off_N2S.10 emissions_flow_off_N2S.10" vType="moto" speedFactor="1.09" vaporized="">
        <emissions CO_abs="4575.97" CO2_abs="112731.51" HC_abs="1294.43" PMx_abs="25.20" NOx_abs="183.23" fuel_abs="36553.50" electricity_abs="0.00"/>
    </tripinfo>
    <tripinfo id="flow_off_E2W.4" depart="125.00" departLane="E2C_0" departPos="5.10" departSpeed="0.00" departDelay="0.00" arrival="200.00" arrivalLane="C2W_0" arrivalPos="489.60" arrivalSpeed="16.45" duration="75.00" routeLength="994.90" waitingTime="5.00" waitingCount="1" stopTime="0.00" timeLoss="17.12" rerouteNo="0" devices="tripinfo_flow_off_E2W.4 routing_flow_off_E2W.4 emissions_flow_off_E2W.4" vType="car" speedFactor="1.25" vaporized="">
        <emissions CO_abs="1696.66" CO2_abs="232569.62" HC_abs="11.37" PMx_abs="25.07" NOx_abs="82.31" fuel_abs="75395.75" electricity_abs="0.00"/>
    </tripinfo>
    <tripinfo id="flow_off_W2E.3" depart="136.00" departLane="W2C_0" departPos="2.10" departSpeed="0.00" departDelay="0.00" arrival="206.00" arrivalLane="C2E_0" arrivalPos="489.60" arrivalSpeed="14.76" duration="70.00" routeLength="997.90" waitingTime="0.00" waitingCount="0" stopTime="0.00" timeLoss="6.55" rerouteNo="0" devices="tripinfo_flow_off_W2E.3 routing_flow_off_W2E.3 emissions_flow_off_W2E.3" vType="moto" speedFactor="1.13" vaporized="">
        <emissions CO_abs="4716.52" CO2_abs="107225.28" HC_abs="1228.50" PMx_abs="24.17" NOx_abs="175.69" fuel_abs="34768.15" electricity_abs="0.00"/>
    </tripinfo>
    <tripinfo id="flow_off_W2E.2" depart="104.00" departLane="W2C_0" departPos="12.10" departSpeed="0.00" departDelay="0.00" arrival="210.00" arrivalLane="C2E_0" arrivalPos="489.60" arrivalSpeed="13.34" duration="106.00" routeLength="987.90" waitingTime="17.00" waitingCount="1" stopTime="0.00" timeLoss="34.38" rerouteNo="0" devices="tripinfo_flow_off_W2E.2 routing_flow_off_W2E.2 emissions_flow_off_W2E.2" vType="bus" speedFactor="1.00" vaporized="">
        <emissions CO_abs="266.72" CO2_abs="1279477.29" HC_abs="23.21" PMx_abs="163.13" NOx_abs="525.76" fuel_abs="411181.20" electricity_abs="0.00"/>
    </tripinfo>
    <tripinfo id="flow_off_E2W.5" depart="134.00" departLane="E2C_0" departPos="12.10" departSpeed="0.00" departDelay="0.00" arrival="214.00" arrivalLane="C2W_0" arrivalPos="489.60" arrivalSpeed="13.41" duration="80.00" routeLength="987.90" waitingTime="0.00" waitingCount="0" stopTime="0.00" timeLoss="8.87" rerouteNo="0" devices="tripinfo_flow_off_E2W.5 routing_flow_off_E2W.5 emissions_flow_off_E2W.5" vType="bus" speedFactor="1.00" vaporized="">
        <emissions CO_abs="191.39" CO2_abs="1014976.31" HC_abs="18.38" PMx_abs="125.32" NOx_abs="406.55" fuel_abs="326176.87" electricity_abs="0.00"/>
    </tripinfo>
    <tripinfo id="flow_off_S2N.2" depart="153.00" departLane="S2C_0" departPos="2.10" departSpeed="0.00" departDelay="0.00" arrival="226.00" arrivalLane="C2N_0" arrivalPos="489.60" arrivalSpeed="13.19" duration="73.00" routeLength="997.90" waitingTime="0.00" waitingCount="0" stopTime="0.00" timeLoss="6.79" rerouteNo="0" devices="tripinfo_flow_off_S2N.2 routing_flow_off_S2N.2 emissions_flow_off_S2N.2" vType="moto" speedFactor="1.09" vaporized="">
        <emissions CO_abs="4297.54" CO2_abs="107867.63" HC_abs="1264.18" PMx_abs="25.43" NOx_abs="165.86" fuel_abs="34976.62" electricity_abs="0.00"/>
    </tripinfo>
    <tripinfo id="flow_off_N2S.9" depart="113.00" departLane="N2C_0" departPos="5.10" departSpeed="0.00" departDelay="0.00" arrival="232.00" arrivalLane="C2S_0" arrivalPos="489.60" arrivalSpeed="10.82" duration="119.00" routeLength="994.90" waitingTime="17.00" waitingCount="2" stopTime="0.00" timeLoss="29.83" rerouteNo="0" devices="tripinfo_flow_off_N2S.9 routing_flow_off_N2S.9 emissions_flow_off_N2S.9" vType="car" speedFactor="0.81" vaporized="">
        <emissions CO_abs="785.22" CO2_abs="232927.85" HC_abs="5.24" PMx_abs="20.83" NOx_abs="80.32" fuel_abs="75512.45" electricity_abs="0.00"/>
    </tripinfo>
    <tripinfo id="flow_off_E2W.6" depart="151.00" departLane="E2C_0" departPos="5.10" departSpeed="0.00" departDelay="0.00" arrival="235.00" arrivalLane="C2W_0" arrivalPos="489.60" arrivalSpeed="15.19" duration="84.00" routeLength="994.90" waitingTime="8.00" waitingCount="1" stopTime="0.00" timeLoss="19.76" rerouteNo="0" devices="tripinfo_flow_off_E2W.6 routing_flow_off_E2W.6 emissions_flow_off_E2W.6" vType="car" speedFactor="1.12" vaporized="">
        <emissions CO_abs="1434.89" CO2_abs="229943.77" HC_abs="9.60" PMx_abs="23.69" NOx_abs="80.54" fuel_abs="74544.62" electricity_abs="0.00"/>
    </tripinfo>
    <tripinfo id="flow_off_S2N.3" depart="161.00" departLane="S2C_0" departPos="5.10" departSpeed="0.00" departDelay="0.00" arrival="256.00" arrivalLane="C2N_0" arrivalPos="489.60" arrivalSpeed="12.66" duration="95.00" routeLength="994.90" waitingTime="8.00" waitingCount="1" stopTime="0.00" timeLoss="20.12" rerouteNo="0" devices="tripinfo_flow_off_S2N.3 routing_flow_off_S2N.3 emissions_flow_off_S2N.3" vType="car" speedFactor="0.96" vaporized="">
        <emissions CO_abs="1087.61" CO2_abs="213700.09" HC_abs="7.26" PMx_abs="20.33" NOx_abs="73.32" fuel_abs="69278.71" electricity_abs="0.00"/>
    </tripinfo>
    <tripinfo id="flow_off_N2S.11" depart="153.00" departLane="N2C_0" departPos="12.10" departSpeed="0.00" departDelay="0.00" arrival="258.00" arrivalLane="C2S_0" arrivalPos="489.60" arrivalSpeed="13.45" duration="105.00" routeLength="987.90" waitingTime="16.00" waitingCount="1" stopTime="0.00" timeLoss="33.27" rerouteNo="0" devices="tripinfo_flow_off_N2S.11 routing_flow_off_N2S.11 emissions_flow_off_N2S.11" vType="bus" speedFactor="1.00" vaporized="">
        <emissions CO_abs="258.78" CO2_abs="1252591.02" HC_abs="22.51" PMx_abs="156.13" NOx_abs="504.80" fuel_abs="402541.19" electricity_abs="0.00"/>
    </tripinfo>
    <tripinfo id="flow_off_N2S.12" depart="183.00" departLane="N2C_0" departPos="5.10" departSpeed="0.00" departDelay="0.00" arrival="259.00" arrivalLane="C2S_1" arrivalPos="489.60" arrivalSpeed="13.66" duration="76.00" routeLength="994.90" waitingTime="0.00" waitingCount="0" stopTime="0.00" timeLoss="6.24" rerouteNo="0" devices="tripinfo_flow_off_N2S.12 routing_flow_off_N2S.12 emissions_flow_off_N2S.12" vType="car" speedFactor="1.03" vaporized="">
        <emissions CO_abs="1108.89" CO2_abs="178150.32" HC_abs="7.43" PMx_abs="20.44" NOx_abs="62.55" fuel_abs="57753.96" electricity_abs="0.00"/>
    </tripinfo>
    <tripinfo id="flow_off_W2E.4" depart="176.00" departLane="W2C_0" departPos="5.10" departSpeed="0.00" departDelay="0.00" arrival="270.00" arrivalLane="C2E_0" arrivalPos="489.60" arrivalSpeed="13.71" duration="94.00" routeLength="994.90" waitingTime="13.00" waitingCount="1" stopTime="0.00" timeLoss="24.17" rerouteNo="0" devices="tripinfo_flow_off_W2E.4 routing_flow_off_W2E.4 emissions_flow_off_W2E.4" vType="car" speedFactor="1.04" vaporized="">
        <emissions CO_abs="1236.16" CO2_abs="231551.95" HC_abs="8.28" PMx_abs="23.10" NOx_abs="81.33" fuel_abs="75066.12" electricity_abs="0.00"/>
    </tripinfo>
    <tripinfo id="flow_off_W2E.6" depart="198.00" departLane="W2C_0" departPos="5.10" departSpeed="0.00" departDelay="1.00" arrival="270.00" arrivalLane="C2E_1" arrivalPos="489.60" arrivalSpeed="14.54" duration="72.00" routeLength="994.90" waitingTime="1.00" waitingCount="1" stopTime="0.00" timeLoss="7.89" rerouteNo="0" devices="tripinfo_flow_off_W2E.6 routing_flow_off_W2E.6 emissions_flow_off_W2E.6" vType="car" speedFactor="1.13" vaporized="">
        <emissions CO_abs="1241.67" CO2_abs="185699.93" HC_abs="8.35" PMx_abs="22.93" NOx_abs="66.18" fuel_abs="60201.48" electricity_abs="0.00"/>
    </tripinfo>
    <tripinfo id="flow_off_W2E.5" depart="194.00" departLane="W2C_0" departPos="12.10" departSpeed="0.00" departDelay="0.00" arrival="275.00" arrivalLane="C2E_0" arrivalPos="489.60" arrivalSpeed="13.77" duration="81.00" routeLength="987.90" waitingTime="0.00" waitingCount="0" stopTime="0.00" timeLoss="9.44" rerouteNo="0" devices="tripinfo_flow_off_W2E.5 routing_flow_off_W2E.5 emissions_flow_off_W2E.5" vType="bus" speedFactor="1.00" vaporized="">
        <emissions CO_abs="193.68" CO2_abs="1022582.74" HC_abs="18.57" PMx_abs="126.93" NOx_abs="411.41" fuel_abs="328621.28" electricity_abs="0.00"/>
    </tripinfo>
    <tripinfo id="flow_off_S2N.4" depart="188.00" departLane="S2C_0" departPos="5.10" departSpeed="0.00" departDelay="0.00" arrival="286.00" arrivalLane="C2N_0" arrivalPos="489.60" arrivalSpeed="14.42" duration="98.00" routeLength="994.90" waitingTime="16.00" waitingCount="1" stopTime="0.00" timeLoss="28.22" rerouteNo="0" devices="tripinfo_flow_off_S2N.4 routing_flow_off_S2N.4 emissions_flow_off_S2N.4" vType="car" speedFactor="1.04" vaporized="">
        <emissions CO_abs="1250.83" CO2_abs="232555.50" HC_abs="8.36" PMx_abs="21.35" NOx_abs="81.76" fuel_abs="75391.41" electricity_abs="0.00"/>
    </tripinfo>
    <tripinfo id="flow_off_N2S.13" depart="188.00" departLane="N2C_0" departPos="5.10" departSpeed="0.00" departDelay="0.00" arrival="289.00" arrivalLane="C2S_0" arrivalPos="489.60" arrivalSpeed="12.27" duration="101.00" routeLength="994.90" waitingTime="13.00" waitingCount="1" stopTime="0.00" timeLoss="25.54" rerouteNo="0" devices="tripinfo_flow_off_N2S.13 routing_flow_off_N2S.13 emissions_flow_off_N2S.13" vType="car" speedFactor="0.96" vaporized="">
        <emissions CO_abs="1049.29" CO2_abs="224553.22" HC_abs="7.01" PMx_abs="21.24" NOx_abs="77.96" fuel_abs="72797.32" electricity_abs="0.00"/>
    </tripinfo>
    <tripinfo id="flow_off_W2E.7" depart="206.00" departLane="W2C_0" departPos="2.10" departSpeed="0.00" departDelay="0.00" arrival="299.00" arrivalLane="C2E_0" arrivalPos="489.60" arrivalSpeed="14.01" duration="93.00" routeLength="997.90" waitingTime="16.00" waitingCount="1" stopTime="0.00" timeLoss="26.89" rerouteNo="0" devices="tripinfo_flow_off_W2E.7 routing_flow_off_W2E.7 emissions_flow_off_W2E.7" vType="moto" speedFactor="1.10" vaporized="">
        <emissions CO_abs="4922.50" CO2_abs="150073.48" HC_abs="1825.84" PMx_abs="36.73" NOx_abs="205.38" fuel_abs="48662.22" electricity_abs="0.00"/>
    </tripinfo>
    <tripinfo id="flow_off_N2S.14" depart="227.00" departLane="N2C_0" departPos="5.10" departSpeed="0.00" departDelay="0.00" arrival="316.00" arrivalLane="C2S_0" arrivalPos="489.60" arrivalSpeed="13.56" duration="89.00" routeLength="994.90" waitingTime="10.00" waitingCount="1" stopTime="0.00" timeLoss="21.90" rerouteNo="0" devices="tripinfo_flow_off_N2S.14 routing_flow_off_N2S.14 emissions_flow_off_N2S.14" vType="car" speedFactor="1.07" vaporized="">
        <emissions CO_abs="1252.59" CO2_abs="220849.73" HC_abs="8.38" PMx_abs="22.10" NOx_abs="76.91" fuel_abs="71596.52" electricity_abs="0.00"/>
    </tripinfo>
    <tripinfo id="flow_off_S2N.8" depart="250.00" departLane="S2C_0" departPos="5.10" departSpeed="0.00" departDelay="0.00" arrival="316.00" arrivalLane="C2N_1" arrivalPos="489.60" arrivalSpeed="17.25" duration="66.00" routeLength="994.90" waitingTime="0.00" waitingCount="0" stopTime="0.00" timeLoss="8.60" rerouteNo="0" devices="tripinfo_flow_off_S2N.8 routing_flow_off_S2N.8 emissions_flow_off_S2N.8" vType="car" speedFactor="1.26" vaporized="">
        <emissions CO_abs="1637.54" CO2_abs="201553.04" HC_abs="10.99" PMx_abs="23.77" NOx_abs="72.95" fuel_abs="65340.63" electricity_abs="0.00"/>
    </tripinfo>
    <tripinfo id="flow_off_N2S.15" depart="245.00" departLane="N2C_0" departPos="5.10" departSpeed="0.00" departDelay="0.00" arrival="318.00" arrivalLane="C2S_0" arrivalPos="489.60" arrivalSpeed="13.57" duration="73.00" routeLength="994.90" waitingTime="0.00" waitingCount="0" stopTime="0.00" timeLoss="5.85" rerouteNo="0" devices="tripinfo_flow_off_N2S.15 routing_flow_off_N2S.15 emissions_flow_off_N2S.15" vType="car" speedFactor="1.07" vaporized="">
        <emissions CO_abs="1100.55" CO2_abs="177862.28" HC_abs="7.40" PMx_abs="22.41" NOx_abs="62.82" fuel_abs="57660.67" electricity_abs="0.00"/>
    </tripinfo>
    <tripinfo id="flow_off_S2N.6" depart="225.00" departLane="S2C_0" departPos="5.10" departSpeed="0.00" departDelay="0.00" arrival="320.00" arrivalLane="C2N_0" arrivalPos="489.60" arrivalSpeed="12.66" duration="95.00" routeLength="994.90" waitingTime="9.00" waitingCount="1" stopTime="0.00" timeLoss="20.04" rerouteNo="0" devices="tripinfo_flow_off_S2N.6 routing_flow_off_S2N.6 emissions_flow_off_S2N.6" vType="car" speedFactor="0.96" vaporized="">
        <emissions CO_abs="1009.88" CO2_abs="215917.08" HC_abs="6.76" PMx_abs="22.16" NOx_abs="74.97" fuel_abs="69997.55" electricity_abs="0.00"/>
    </tripinfo>
    <tripinfo id="flow_off_S2N.5" depart="212.00" departLane="S2C_0" departPos="5.10" departSpeed="0.00" departDelay="0.00" arrival="325.00" arrivalLane="C2N_0" arrivalPos="489.60" arrivalSpeed="11.17" duration="113.00" routeLength="994.90" waitingTime="17.00" waitingCount="1" stopTime="0.00" timeLoss="28.90" rerouteNo="0" devices="tripinfo_flow_off_S2N.5 routing_flow_off_S2N.5 emissions_flow_off_S2N.5" vType="car" speedFactor="0.86" vaporized="">
        <emissions CO_abs="901.17" CO2_abs="228802.71" HC_abs="6.02" PMx_abs="20.02" NOx_abs="78.81" fuel_abs="74175.01" electricity_abs="0.00"/>
    </tripinfo>
    <tripinfo id="flow_off_S2N.7" depart="247.00" departLane="S2C_0" departPos="2.10" departSpeed="0.00" departDelay="0.00" arrival="328.00" arrivalLane="C2N_0" arrivalPos="489.60" arrivalSpeed="13.35" duration="81.00" routeLength="997.90" waitingTime="0.00" waitingCount="0" stopTime="0.00" timeLoss="7.79" rerouteNo="0" devices="tripinfo_flow_off_S2N.7 routing_flow_off_S2N.7 emissions_flow_off_S2N.7" vType="moto" speedFactor="0.99" vaporized="">
        <emissions CO_abs="3610.59" CO2_abs="112271.55" HC_abs="1354.56" PMx_abs="27.54" NOx_abs="158.35" fuel_abs="36404.75" electricity_abs="0.00"/>
    </tripinfo>
    <tripinfo id="flow_off_E2W.7" depart="257.00" departLane="E2C_0" departPos="5.10" departSpeed="0.00" departDelay="0.00" arrival="328.00" arrivalLane="C2W_0" arrivalPos="489.60" arrivalSpeed="15.26" duration="71.00" routeLength="994.90" waitingTime="0.00" waitingCount="0" stopTime="0.00" timeLoss="7.78" rerouteNo="0" devices="tripinfo_flow_off_E2W.7 routing_flow_off_E2W.7 emissions_flow_off_E2W.7" vType="car" speedFactor="1.14" vaporized="">
        <emissions CO_abs="1424.32" CO2_abs="202740.12" HC_abs="9.55" PMx_abs="23.76" NOx_abs="71.96" fuel_abs="65725.58" electricity_abs="0.00"/>
    </tripinfo>
    <tripinfo id="flow_off_W2E.8" depart="238.00" departLane="W2C_0" departPos="2.10" departSpeed="0.00" departDelay="0.00" arrival="333.00" arrivalLane="C2E_0" arrivalPos="489.60" arrivalSpeed="13.38" duration="95.00" routeLength="997.90" waitingTime="14.00" waitingCount="1" stopTime="0.00" timeLoss="25.11" rerouteNo="0" devices="tripinfo_flow_off_W2E.8 routing_flow_off_W2E.8 emissions_flow_off_W2E.8" vType="moto" speedFactor="1.03" vaporized="">
        <emissions CO_abs="4337.34" CO2_abs="145578.07" HC_abs="1792.66" PMx_abs="36.41" NOx_abs="190.93" fuel_abs="47204.68" electricity_abs="0.00"/>
    </tripinfo>
    <tripinfo id="flow_off_W2E.9" depart="254.00" departLane="W2C_0" departPos="2.10" departSpeed="0.00" departDelay="0.00" arrival="340.00" arrivalLane="C2E_0" arrivalPos="489.60" arrivalSpeed="12.75" duration="86.00" routeLength="997.90" waitingTime="0.00" waitingCount="0" stopTime="0.00" timeLoss="8.05" rerouteNo="0" devices="tripinfo_flow_off_W2E.9 routing_flow_off_W2E.9 emissions_flow_off_W2E.9" vType="moto" speedFactor="0.93" vaporized="">
        <emissions CO_abs="3197.27" CO2_abs="109704.51" HC_abs="1318.56" PMx_abs="26.67" NOx_abs="151.98" fuel_abs="35572.31" electricity_abs="0.00"/>
    </tripinfo>
    <tripinfo id="flow_off_S2N.10" depart="268.00" departLane="S2C_0" departPos="2.10" departSpeed="0.00" departDelay="0.00" arrival="348.00" arrivalLane="C2N_0" arrivalPos="489.60" arrivalSpeed="14.29" duration="80.00" routeLength="997.90" waitingTime="1.00" waitingCount="1" stopTime="0.00" timeLoss="13.23" rerouteNo="0" devices="tripinfo_flow_off_S2N.10 routing_flow_off_S2N.10 emissions_flow_off_S2N.10" vType="moto" speedFactor="1.08" vaporized="">
        <emissions CO_abs="4408.86" CO2_abs="123786.32" HC_abs="1429.75" PMx_abs="28.57" NOx_abs="184.30" fuel_abs="40138.21" electricity_abs="0.00"/>
    </tripinfo>
    <tripinfo id="flow_off_N2S.17" depart="255.00" departLane="N2C_0" departPos="5.10" departSpeed="0.00" departDelay="0.00" arrival="356.00" arrivalLane="C2S_1" arrivalPos="489.60" arrivalSpeed="12.27" duration="101.00" routeLength="994.90" waitingTime="8.00" waitingCount="1" stopTime="0.00" timeLoss="20.06" rerouteNo="0" devices="tripinfo_flow_off_N2S.17 routing_flow_off_N2S.17 emissions_flow_off_N2S.17" vType="car" speedFactor="0.89" vaporized="">
        <emissions CO_abs="911.98" CO2_abs="219351.23" HC_abs="6.10" PMx_abs="22.39" NOx_abs="75.37" fuel_abs="71110.94" electricity_abs="0.00"/>
    </tripinfo>
    <tripinfo id="flow_off_N2S.16" depart="248.00" departLane="N2C_0" departPos="5.10" departSpeed="0.00" departDelay="0.00" arrival="357.00" arrivalLane="C2S_0" arrivalPos="489.60" arrivalSpeed="11.50" duration="109.00" routeLength="994.90" waitingTime="14.00" waitingCount="1" stopTime="0.00" timeLoss="26.53" rerouteNo="0" devices="tripinfo_flow_off_N2S.16 routing_flow_off_N2S.16 emissions_flow_off_N2S.16" vType="car" speedFactor="0.88" vaporized="">
        <emissions CO_abs="903.01" CO2_abs="224384.74" HC_abs="6.03" PMx_abs="20.54" NOx_abs="77.26" fuel_abs="72742.76" electricity_abs="0.00"/>
    </tripinfo>