<?xml version="1.0" encoding="UTF-8"?>

<!-- generated on 2026-05-03T08:48:48.560019+07:00 by Eclipse SUMO sumo 1.26.0
<sumoConfiguration xmlns:xsi="http://www.w3.org/2001/XMLSchema-instance" xsi:noNamespaceSchemaLocation="http://sumo.dlr.de/xsd/sumoConfiguration.xsd">

    <input>
        <net-file value="sumo/network.net.xml"/>
        <route-files value="sumo/routes.rou.xml"/>
        <additional-files value="sumo/tls_webster.add.xml,sumo/traffic.add.xml"/>
    </input>

    <output>
        <tripinfo-output value="C:\Users\DELL\Downloads\project\runs\exp_20260503_080746\evaluation\tripinfo_webster.xml"/>
        <tripinfo-output.write-unfinished value="true"/>
    </output>

    <time>
        <begin value="0"/>
        <end value="7200"/>
    </time>

    <processing>
        <time-to-teleport value="300"/>
        <waiting-time-memory value="10000"/>
    </processing>

    <report>
        <verbose value="false"/>
        <no-step-log value="true"/>
    </report>

    <emissions>
        <device.emissions.probability value="1.0"/>
    </emissions>

    <traci_server>
        <remote-port value="60353"/>
    </traci_server>

    <random_number>
        <seed value="41"/>
    </random_number>

</sumoConfiguration>
-->

<tripinfos xmlns:xsi="http://www.w3.org/2001/XMLSchema-instance" xsi:noNamespaceSchemaLocation="http://sumo.dlr.de/xsd/tripinfo_file.xsd">
    <tripinfo id="flow_off_E2W.1" depart="3.00" departLane="E2C_0" departPos="5.10" departSpeed="0.00" departDelay="2.00" arrival="77.00" arrivalLane="C2W_0" arrivalPos="489.60" arrivalSpeed="13.60" duration="74.00" routeLength="994.90" waitingTime="0.00" waitingCount="0" stopTime="0.00" timeLoss="7.05" rerouteNo="0" devices="tripinfo_flow_off_E2W.1 routing_flow_off_E2W.1 emissions_flow_off_E2W.1" vType="car" speedFactor="1.07" vaporized="">
        <emissions CO_abs="1068.25" CO2_abs="180794.56" HC_abs="7.19" PMx_abs="23.45" NOx_abs="63.97" fuel_abs="58611.34" electricity_abs="0.00"/>
    </tripinfo>
    <tripinfo id="flow_off_E2W.0" depart="0.00" departLane="E2C_0" departPos="5.10" departSpeed="0.00" departDelay="0.00" arrival="83.00" arrivalLane="C2W_0" arrivalPos="489.60" arrivalSpeed="12.10" duration="83.00" routeLength="994.90" waitingTime="0.00" waitingCount="0" stopTime="0.00" timeLoss="6.86" rerouteNo="0" devices="tripinfo_flow_off_E2W.0 routing_flow_off_E2W.0 emissions_flow_off_E2W.0" vType="car" speedFactor="0.95" vaporized="">
        <emissions CO_abs="1029.77" CO2_abs="187597.41" HC_abs="6.89" PMx_abs="20.87" NOx_abs="65.23" fuel_abs="60816.65" electricity_abs="0.00"/>
    </tripinfo>
    <tripinfo id="flow_off_N2S.0" depart="32.00" departLane="N2C_0" departPos="2.10" departSpeed="0.00" departDelay="0.00" arrival="117.00" arrivalLane="C2S_0" arrivalPos="489.60" arrivalSpeed="13.51" duration="85.00" routeLength="997.90" waitingTime="3.00" waitingCount="1" stopTime="0.00" timeLoss="14.70" rerouteNo="0" devices="tripinfo_flow_off_N2S.0 routing_flow_off_N2S.0 emissions_flow_off_N2S.0" vType="moto" speedFactor="1.02" vaporized="">
        <emissions CO_abs="4276.69" CO2_abs="132652.84" HC_abs="1565.27" PMx_abs="31.33" NOx_abs="189.91" fuel_abs="43013.30" electricity_abs="0.00"/>
    </tripinfo>
    <tripinfo id="flow_off_S2N.0" depart="8.00" departLane="S2C_0" departPos="2.10" departSpeed="0.00" departDelay="0.00" arrival="121.00" arrivalLane="C2N_0" arrivalPos="489.60" arrivalSpeed="10.93" duration="113.00" routeLength="997.90" waitingTime="24.00" waitingCount="1" stopTime="0.00" timeLoss="35.36" rerouteNo="0" devices="tripinfo_flow_off_S2N.0 routing_flow_off_S2N.0 emissions_flow_off_S2N.0" vType="moto" speedFactor="0.93" vaporized="">
        <emissions CO_abs="3484.38" CO2_abs="160885.93" HC_abs="2083.46" PMx_abs="42.78" NOx_abs="182.58" fuel_abs="52168.70" electricity_abs="0.00"/>
    </tripinfo>
    <tripinfo id="flow_off_N2S.1" depart="42.00" departLane="N2C_0" departPos="2.10" departSpeed="0.00" departDelay="0.00" arrival="124.00" arrivalLane="C2S_0" arrivalPos="489.60" arrivalSpeed="12.70" duration="82.00" routeLength="997.90" waitingTime="0.00" waitingCount="0" stopTime="0.00" timeLoss="6.62" rerouteNo="0" devices="tripinfo_flow_off_N2S.1 routing_flow_off_N2S.1 emissions_flow_off_N2S.1" vType="moto" speedFactor="0.96" vaporized="">
        <emissions CO_abs="3656.49" CO2_abs="112988.86" HC_abs="1351.89" PMx_abs="27.26" NOx_abs="162.31" fuel_abs="36637.26" electricity_abs="0.00"/>
    </tripinfo>
    <tripinfo id="flow_off_N2S.4" depart="71.00" departLane="N2C_0" departPos="5.10" departSpeed="0.00" departDelay="2.00" arrival="143.00" arrivalLane="C2S_0" arrivalPos="489.60" arrivalSpeed="15.21" duration="72.00" routeLength="994.90" waitingTime="0.00" waitingCount="0" stopTime="0.00" timeLoss="7.08" rerouteNo="0" devices="tripinfo_flow_off_N2S.4 routing_flow_off_N2S.4 emissions_flow_off_N2S.4" vType="car" speedFactor="1.11" vaporized="">
        <emissions CO_abs="1258.26" CO2_abs="188585.59" HC_abs="8.44" PMx_abs="22.95" NOx_abs="66.98" fuel_abs="61136.95" electricity_abs="0.00"/>
    </tripinfo>
    <tripinfo id="flow_off_E2W.2" depart="82.00" departLane="E2C_0" departPos="2.10" departSpeed="0.00" departDelay="0.00" arrival="147.00" arrivalLane="C2W_0" arrivalPos="489.60" arrivalSpeed="15.78" duration="65.00" routeLength="997.90" waitingTime="0.00" waitingCount="0" stopTime="0.00" timeLoss="6.52" rerouteNo="0" devices="tripinfo_flow_off_E2W.2 routing_flow_off_E2W.2 emissions_flow_off_E2W.2" vType="moto" speedFactor="1.25" vaporized="">
        <emissions CO_abs="6287.71" CO2_abs="118708.00" HC_abs="1310.21" PMx_abs="25.37" NOx_abs="210.53" fuel_abs="38491.27" electricity_abs="0.00"/>
    </tripinfo>
    <tripinfo id="flow_off_N2S.2" depart="62.00" departLane="N2C_0" departPos="5.10" departSpeed="0.00" departDelay="0.00" arrival="148.00" arrivalLane="C2S_0" arrivalPos="489.60" arrivalSpeed="12.30" duration="86.00" routeLength="994.90" waitingTime="0.00" waitingCount="0" stopTime="0.00" timeLoss="6.94" rerouteNo="0" devices="tripinfo_flow_off_N2S.2 routing_flow_off_N2S.2 emissions_flow_off_N2S.2" vType="car" speedFactor="0.92" vaporized="">
        <emissions CO_abs="891.19" CO2_abs="178936.50" HC_abs="5.97" PMx_abs="20.27" NOx_abs="61.99" fuel_abs="58008.97" electricity_abs="0.00"/>
    </tripinfo>
    <tripinfo id="flow_off_E2W.3" depart="96.00" departLane="E2C_0" departPos="2.10" departSpeed="0.00" departDelay="0.00" arrival="177.00" arrivalLane="C2W_0" arrivalPos="489.60" arrivalSpeed="12.15" duration="81.00" routeLength="997.90" waitingTime="0.00" waitingCount="0" stopTime="0.00" timeLoss="7.12" rerouteNo="0" devices="tripinfo_flow_off_E2W.3 routing_flow_off_E2W.3 emissions_flow_off_E2W.3" vType="moto" speedFactor="0.97" vaporized="">
        <emissions CO_abs="3569.14" CO2_abs="108924.07" HC_abs="1289.34" PMx_abs="25.77" NOx_abs="159.59" fuel_abs="35319.15" electricity_abs="0.00"/>
    </tripinfo>
    <tripinfo id="flow_off_W2E.0" depart="87.00" departLane="W2C_0" departPos="5.10" departSpeed="0.00" departDelay="0.00" arrival="184.00" arrivalLane="C2E_0" arrivalPos="489.60" arrivalSpeed="10.07" duration="97.00" routeLength="994.90" waitingTime="0.00" waitingCount="0" stopTime="0.00" timeLoss="8.31" rerouteNo="0" devices="tripinfo_flow_off_W2E.0 routing_flow_off_W2E.0 emissions_flow_off_W2E.0" vType="car" speedFactor="0.81" vaporized="">
        <emissions CO_abs="682.54" CO2_abs="181769.76" HC_abs="4.57" PMx_abs="20.44" NOx_abs="62.73" fuel_abs="58927.63" electricity_abs="0.00"/>
    </tripinfo>
    <tripinfo id="flow_off_W2E.2" depart="104.00" departLane="W2C_0" departPos="12.10" departSpeed="0.00" departDelay="0.00" arrival="184.00" arrivalLane="C2E_1" arrivalPos="489.60" arrivalSpeed="13.65" duration="80.00" routeLength="987.90" waitingTime="0.00" waitingCount="0" stopTime="0.00" timeLoss="8.06" rerouteNo="0" devices="tripinfo_flow_off_W2E.2 routing_flow_off_W2E.2 emissions_flow_off_W2E.2" vType="bus" speedFactor="1.00" vaporized="">
        <emissions CO_abs="197.14" CO2_abs="1067526.80" HC_abs="19.07" PMx_abs="128.21" NOx_abs="418.50" fuel_abs="343065.16" electricity_abs="0.00"/>
    </tripinfo>
    <tripinfo id="flow_off_W2E.1" depart="94.00" departLane="W2C_0" departPos="5.10" departSpeed="0.00" departDelay="0.00" arrival="186.00" arrivalLane="C2E_0" arrivalPos="489.60" arrivalSpeed="11.60" duration="92.00" routeLength="994.90" waitingTime="0.00" waitingCount="0" stopTime="0.00" timeLoss="6.71" rerouteNo="0" devices="tripinfo_flow_off_W2E.1 routing_flow_off_W2E.1 emissions_flow_off_W2E.1" vType="car" speedFactor="0.84" vaporized="">
        <emissions CO_abs="696.48" CO2_abs="183613.44" HC_abs="4.68" PMx_abs="22.33" NOx_abs="63.89" fuel_abs="59525.40" electricity_abs="0.00"/>
    </tripinfo>
    <tripinfo id="flow_off_N2S.6" depart="83.00" departLane="N2C_0" departPos="2.10" departSpeed="0.00" departDelay="0.00" arrival="189.00" arrivalLane="C2S_0" arrivalPos="489.60" arrivalSpeed="14.58" duration="106.00" routeLength="997.90" waitingTime="34.00" waitingCount="1" stopTime="0.00" timeLoss="44.56" rerouteNo="0" devices="tripinfo_flow_off_N2S.6 routing_flow_off_N2S.6 emissions_flow_off_N2S.6" vType="moto" speedFactor="1.18" vaporized="">
        <emissions CO_abs="5659.93" CO2_abs="177369.64" HC_abs="2262.22" PMx_abs="45.27" NOx_abs="227.86" fuel_abs="57513.42" electricity_abs="0.00"/>
    </tripinfo>
    <tripinfo id="flow_off_N2S.7" depart="103.00" departLane="N2C_0" departPos="5.10" departSpeed="0.00" departDelay="0.00" arrival="196.00" arrivalLane="C2S_0" arrivalPos="489.60" arrivalSpeed="14.18" duration="93.00" routeLength="994.90" waitingTime="10.00" waitingCount="1" stopTime="0.00" timeLoss="22.50" rerouteNo="0" devices="tripinfo_flow_off_N2S.7 routing_flow_off_N2S.7 emissions_flow_off_N2S.7" vType="car" speedFactor="1.03" vaporized="">
        <emissions CO_abs="1199.84" CO2_abs="229867.12" HC_abs="8.03" PMx_abs="23.89" NOx_abs="80.07" fuel_abs="74519.96" electricity_abs="0.00"/>
    </tripinfo>
    <tripinfo id="flow_off_N2S.10" depart="117.00" departLane="N2C_0" departPos="2.10" departSpeed="0.00" departDelay="0.00" arrival="198.00" arrivalLane="C2S_0" arrivalPos="489.60" arrivalSpeed="13.39" duration="81.00" routeLength="997.90" waitingTime="0.00" waitingCount="0" stopTime="0.00" timeLoss="14.57" rerouteNo="0" devices="tripinfo_flow_off_N2S.10 routing_flow_off_N2S.10 emissions_flow_off_N2S.10" vType="moto" speedFactor="1.09" vaporized="">
        <emissions CO_abs="4663.06" CO2_abs="128194.57" HC_abs="1483.16" PMx_abs="29.69" NOx_abs="190.78" fuel_abs="41567.62" electricity_abs="0.00"/>
    </tripinfo>
    <tripinfo id="flow_off_N2S.3" depart="68.00" departLane="N2C_0" departPos="5.10" departSpeed="0.00" departDelay="0.00" arrival="199.00" arrivalLane="C2S_0" arrivalPos="489.60" arrivalSpeed="11.42" duration="131.00" routeLength="994.90" waitingTime="40.00" waitingCount="1" stopTime="0.00" timeLoss="51.46" rerouteNo="0" devices="tripinfo_flow_off_N2S.3 routing_flow_off_N2S.3 emissions_flow_off_N2S.3" vType="car" speedFactor="0.91" vaporized="">
        <emissions CO_abs="961.45" CO2_abs="262484.26" HC_abs="6.43" PMx_abs="20.72" NOx_abs="93.22" fuel_abs="85094.36" electricity_abs="0.00"/>
    </tripinfo>
    <tripinfo id="flow_off_N2S.5" depart="76.00" departLane="N2C_0" departPos="5.10" departSpeed="0.00" departDelay="0.00" arrival="200.00" arrivalLane="C2S_1" arrivalPos="489.60" arrivalSpeed="12.26" duration="124.00" routeLength="994.90" waitingTime="33.00" waitingCount="1" stopTime="0.00" timeLoss="49.32" rerouteNo="0" devices="tripinfo_flow_off_N2S.5 routing_flow_off_N2S.5 emissions_flow_off_N2S.5" vType="car" speedFactor="0.96" vaporized="">
        <emissions CO_abs="1166.29" CO2_abs="272346.24" HC_abs="7.78" PMx_abs="21.34" NOx_abs="95.89" fuel_abs="88291.27" electricity_abs="0.00"/>
    </tripinfo>
    <tripinfo id="flow_off_N2S.8" depart="111.00" departLane="N2C_0" departPos="2.10" departSpeed="0.00" departDelay="0.00" arrival="201.00" arrivalLane="C2S_0" arrivalPos="489.60" arrivalSpeed="13.58" duration="90.00" routeLength="997.90" waitingTime="3.00" waitingCount="1" stopTime="0.00" timeLoss="18.98" rerouteNo="0" devices="tripinfo_flow_off_N2S.8 routing_flow_off_N2S.8 emissions_flow_off_N2S.8" vType="moto" speedFactor="1.02" vaporized="">
        <emissions CO_abs="4183.49" CO2_abs="141616.86" HC_abs="1705.71" PMx_abs="34.46" NOx_abs="193.09" fuel_abs="45920.08" electricity_abs="0.00"/>
    </tripinfo>
    <tripinfo id="flow_off_S2N.1" depart="78.00" departLane="S2C_0" departPos="2.10" departSpeed="0.00" departDelay="0.00" arrival="203.00" arrivalLane="C2N_0" arrivalPos="489.60" arrivalSpeed="11.15" duration="125.00" routeLength="997.90" waitingTime="25.00" waitingCount="1" stopTime="0.00" timeLoss="39.26" rerouteNo="0" devices="tripinfo_flow_off_S2N.1 routing_flow_off_S2N.1 emissions_flow_off_S2N.1" vType="moto" speedFactor="0.84" vaporized="">
        <emissions CO_abs="2830.96" CO2_abs="165375.97" HC_abs="2154.63" PMx_abs="44.48" NOx_abs="173.12" fuel_abs="53624.69" electricity_abs="0.00"/>
    </tripinfo>
    <tripinfo id="flow_off_N2S.9" depart="114.00" departLane="N2C_0" departPos="5.10" departSpeed="0.00" departDelay="1.00" arrival="211.00" arrivalLane="C2S_0" arrivalPos="489.60" arrivalSpeed="10.85" duration="97.00" routeLength="994.90" waitingTime="0.00" waitingCount="0" stopTime="0.00" timeLoss="7.55" rerouteNo="0" devices="tripinfo_flow_off_N2S.9 routing_flow_off_N2S.9 emissions_flow_off_N2S.9" vType="car" speedFactor="0.81" vaporized="">
        <emissions CO_abs="777.15" CO2_abs="192770.07" HC_abs="5.19" PMx_abs="20.70" NOx_abs="66.19" fuel_abs="62493.73" electricity_abs="0.00"/>
    </tripinfo>
    <tripinfo id="flow_off_E2W.4" depart="125.00" departLane="E2C_0" departPos="5.10" departSpeed="0.00" departDelay="0.00" arrival="227.00" arrivalLane="C2W_0" arrivalPos="489.60" arrivalSpeed="16.32" duration="102.00" routeLength="994.90" waitingTime="32.00" waitingCount="1" stopTime="0.00" timeLoss="43.95" rerouteNo="0" devices="tripinfo_flow_off_E2W.4 routing_flow_off_E2W.4 emissions_flow_off_E2W.4" vType="car" speedFactor="1.25" vaporized="">
        <emissions CO_abs="1738.99" CO2_abs="277377.64" HC_abs="11.65" PMx_abs="25.27" NOx_abs="100.66" fuel_abs="89922.18" electricity_abs="0.00"/>
    </tripinfo>
    <tripinfo id="flow_off_W2E.3" depart="136.00" departLane="W2C_0" departPos="2.10" departSpeed="0.00" departDelay="0.00" arrival="228.00" arrivalLane="C2E_0" arrivalPos="489.60" arrivalSpeed="13.93" duration="92.00" routeLength="997.90" waitingTime="16.00" waitingCount="1" stopTime="0.00" timeLoss="28.14" rerouteNo="0" devices="tripinfo_flow_off_W2E.3 routing_flow_off_W2E.3 emissions_flow_off_W2E.3" vType="moto" speedFactor="1.13" vaporized="">
        <emissions CO_abs="4923.23" CO2_abs="144764.35" HC_abs="1764.55" PMx_abs="35.38" NOx_abs="199.92" fuel_abs="46940.70" electricity_abs="0.00"/>
    </tripinfo>
    <tripinfo id="flow_off_E2W.6" depart="151.00" departLane="E2C_0" departPos="5.10" departSpeed="0.00" departDelay="0.00" arrival="232.00" arrivalLane="C2W_0" arrivalPos="489.60" arrivalSpeed="15.19" duration="81.00" routeLength="994.90" waitingTime="4.00" waitingCount="1" stopTime="0.00" timeLoss="16.19" rerouteNo="0" devices="tripinfo_flow_off_E2W.6 routing_flow_off_E2W.6 emissions_flow_off_E2W.6" vType="car" speedFactor="1.12" vaporized="">
        <emissions CO_abs="1555.68" CO2_abs="234593.23" HC_abs="10.40" PMx_abs="24.05" NOx_abs="82.34" fuel_abs="76051.85" electricity_abs="0.00"/>
    </tripinfo>
    <tripinfo id="flow_off_E2W.5" depart="134.00" departLane="E2C_0" departPos="12.10" departSpeed="0.00" departDelay="0.00" arrival="236.00" arrivalLane="C2W_0" arrivalPos="489.60" arrivalSpeed="13.53" duration="102.00" routeLength="987.90" waitingTime="13.00" waitingCount="1" stopTime="0.00" timeLoss="30.43" rerouteNo="0" devices="tripinfo_flow_off_E2W.5 routing_flow_off_E2W.5 emissions_flow_off_E2W.5" vType="bus" speedFactor="1.00" vaporized="">
        <emissions CO_abs="258.08" CO2_abs="1261031.15" HC_abs="22.62" PMx_abs="156.58" NOx_abs="505.36" fuel_abs="405252.98" electricity_abs="0.00"/>
    </tripinfo>
    <tripinfo id="flow_off_W2E.4" depart="176.00" departLane="W2C_0" departPos="5.10" departSpeed="0.00" departDelay="0.00" arrival="252.00" arrivalLane="C2E_0" arrivalPos="489.60" arrivalSpeed="13.64" duration="76.00" routeLength="994.90" waitingTime="0.00" waitingCount="0" stopTime="0.00" timeLoss="6.43" rerouteNo="0" devices="tripinfo_flow_off_W2E.4 routing_flow_off_W2E.4 emissions_flow_off_W2E.4" vType="car" speedFactor="1.04" vaporized="">
        <emissions CO_abs="1104.48" CO2_abs="182425.57" HC_abs="7.41" PMx_abs="22.03" NOx_abs="64.25" fuel_abs="59140.01" electricity_abs="0.00"/>
    </tripinfo>
    <tripinfo id="flow_off_S2N.2" depart="153.00" departLane="S2C_0" departPos="2.10" departSpeed="0.00" departDelay="0.00" arrival="269.00" arrivalLane="C2N_0" arrivalPos="489.60" arrivalSpeed="14.93" duration="116.00" routeLength="997.90" waitingTime="37.00" waitingCount="1" stopTime="0.00" timeLoss="49.08" rerouteNo="0" devices="tripinfo_flow_off_S2N.2 routing_flow_off_S2N.2 emissions_flow_off_S2N.2" vType="moto" speedFactor="1.09" vaporized="">
        <emissions CO_abs="4492.83" CO2_abs="173770.19" HC_abs="2271.78" PMx_abs="46.09" NOx_abs="203.52" fuel_abs="56346.51" electricity_abs="0.00"/>
    </tripinfo>
    <tripinfo id="flow_off_N2S.12" depart="183.00" departLane="N2C_0" departPos="5.10" departSpeed="0.00" departDelay="0.00" arrival="271.00" arrivalLane="C2S_0" arrivalPos="489.60" arrivalSpeed="14.19" duration="88.00" routeLength="994.90" waitingTime="5.00" waitingCount="1" stopTime="0.00" timeLoss="17.80" rerouteNo="0" devices="tripinfo_flow_off_N2S.12 routing_flow_off_N2S.12 emissions_flow_off_N2S.12" vType="car" speedFactor="1.03" vaporized="">
        <emissions CO_abs="1207.82" CO2_abs="222544.49" HC_abs="8.09" PMx_abs="23.45" NOx_abs="77.03" fuel_abs="72145.98" electricity_abs="0.00"/>
    </tripinfo>
    <tripinfo id="flow_off_S2N.4" depart="188.00" departLane="S2C_0" departPos="5.10" departSpeed="0.00" departDelay="0.00" arrival="272.00" arrivalLane="C2N_0" arrivalPos="489.60" arrivalSpeed="13.68" duration="84.00" routeLength="994.90" waitingTime="3.00" waitingCount="1" stopTime="0.00" timeLoss="14.70" rerouteNo="0" devices="tripinfo_flow_off_S2N.4 routing_flow_off_S2N.4 emissions_flow_off_S2N.4" vType="car" speedFactor="1.04" vaporized="">
        <emissions CO_abs="1232.55" CO2_abs="209423.77" HC_abs="8.24" PMx_abs="21.14" NOx_abs="72.07" fuel_abs="67892.27" electricity_abs="0.00"/>
    </tripinfo>
    <tripinfo id="flow_off_S2N.3" depart="161.00" departLane="S2C_0" departPos="5.10" departSpeed="0.00" departDelay="0.00" arrival="273.00" arrivalLane="C2N_0" arrivalPos="489.60" arrivalSpeed="13.24" duration="112.00" routeLength="994.90" waitingTime="26.00" waitingCount="1" stopTime="0.00" timeLoss="36.98" rerouteNo="0" devices="tripinfo_flow_off_S2N.3 routing_flow_off_S2N.3 emissions_flow_off_S2N.3" vType="car" speedFactor="0.96" vaporized="">
        <emissions CO_abs="1133.50" CO2_abs="247146.13" HC_abs="7.56" PMx_abs="21.13" NOx_abs="86.67" fuel_abs="80121.71" electricity_abs="0.00"/>
    </tripinfo>
    <tripinfo id="flow_off_N2S.11" depart="153.00" departLane="N2C_0" departPos="12.10" departSpeed="0.00" departDelay="0.00" arrival="275.00" arrivalLane="C2S_0" arrivalPos="489.60" arrivalSpeed="13.37" duration="122.00" routeLength="987.90" waitingTime="32.00" waitingCount="1" stopTime="0.00" timeLoss="50.43" rerouteNo="0" devices="tripinfo_flow_off_N2S.11 routing_flow_off_N2S.11 emissions_flow_off_N2S.11" vType="bus" speedFactor="1.00" vaporized="">
        <emissions CO_abs="301.81" CO2_abs="1314628.89" HC_abs="25.51" PMx_abs="190.21" NOx_abs="602.20" fuel_abs="422476.84" electricity_abs="0.00"/>
    </tripinfo>
    <tripinfo id="flow_off_N2S.13" depart="188.00" departLane="N2C_0" departPos="5.10" departSpeed="0.00" departDelay="0.00" arrival="276.00" arrivalLane="C2S_0" arrivalPos="489.60" arrivalSpeed="13.08" duration="88.00" routeLength="994.90" waitingTime="0.00" waitingCount="0" stopTime="0.00" timeLoss="12.29" rerouteNo="0" devices="tripinfo_flow_off_N2S.13 routing_flow_off_N2S.13 emissions_flow_off_N2S.13" vType="car" speedFactor="0.96" vaporized="">
        <emissions CO_abs="1024.25" CO2_abs="209892.78" HC_abs="6.86" PMx_abs="23.26" NOx_abs="72.26" fuel_abs="68044.49" electricity_abs="0.00"/>
    </tripinfo>
    <tripinfo id="flow_off_S2N.5" depart="212.00" departLane="S2C_0" departPos="5.10" departSpeed="0.00" departDelay="0.00" arrival="304.00" arrivalLane="C2N_0" arrivalPos="489.60" arrivalSpeed="11.22" duration="92.00" routeLength="994.90" waitingTime="0.00" waitingCount="0" stopTime="0.00" timeLoss="7.42" rerouteNo="0" devices="tripinfo_flow_off_S2N.5 routing_flow_off_S2N.5 emissions_flow_off_S2N.5" vType="car" speedFactor="0.86" vaporized="">
        <emissions CO_abs="727.65" CO2_abs="177413.02" HC_abs="4.88" PMx_abs="20.68" NOx_abs="61.48" fuel_abs="57515.21" electricity_abs="0.00"/>
    </tripinfo>
    <tripinfo id="flow_off_W2E.6" depart="198.00" departLane="W2C_0" departPos="5.10" departSpeed="0.00" departDelay="1.00" arrival="306.00" arrivalLane="C2E_0" arrivalPos="489.60" arrivalSpeed="15.37" duration="108.00" routeLength="994.90" waitingTime="29.00" waitingCount="1" stopTime="0.00" timeLoss="44.14" rerouteNo="0" devices="tripinfo_flow_off_W2E.6 routing_flow_off_W2E.6 emissions_flow_off_W2E.6" vType="car" speedFactor="1.13" vaporized="">
        <emissions CO_abs="1420.35" CO2_abs="259639.30" HC_abs="9.50" PMx_abs="22.27" NOx_abs="92.69" fuel_abs="84171.74" electricity_abs="0.00"/>
    </tripinfo>
    <tripinfo id="flow_off_W2E.7" depart="206.00" departLane="W2C_0" departPos="2.10" departSpeed="0.00" departDelay="0.00" arrival="309.00" arrivalLane="C2E_0" arrivalPos="489.60" arrivalSpeed="13.98" duration="103.00" routeLength="997.90" waitingTime="24.00" waitingCount="1" stopTime="0.00" timeLoss="37.20" rerouteNo="0" devices="tripinfo_flow_off_W2E.7 routing_flow_off_W2E.7 emissions_flow_off_W2E.7" vType="moto" speedFactor="1.10" vaporized="">
        <emissions CO_abs="4580.21" CO2_abs="160291.03" HC_abs="2044.94" PMx_abs="41.61" NOx_abs="198.61" fuel_abs="51975.64" electricity_abs="0.00"/>
    </tripinfo>
    <tripinfo id="flow_off_W2E.5" depart="194.00" departLane="W2C_0" departPos="12.10" departSpeed="0.00" departDelay="0.00" arrival="313.00" arrivalLane="C2E_0" arrivalPos="489.60" arrivalSpeed="13.65" duration="119.00" routeLength="987.90" waitingTime="29.00" waitingCount="1" stopTime="0.00" timeLoss="47.32" rerouteNo="0" devices="tripinfo_flow_off_W2E.5 routing_flow_off_W2E.5 emissions_flow_off_W2E.5" vType="bus" speedFactor="1.00" vaporized="">
        <emissions CO_abs="286.41" CO2_abs="1289768.24" HC_abs="24.11" PMx_abs="175.01" NOx_abs="560.47" fuel_abs="414489.23" electricity_abs="0.00"/>
    </tripinfo>
    <tripinfo id="flow_off_W2E.8" depart="238.00" departLane="W2C_0" departPos="2.10" departSpeed="0.00" departDelay="0.00" arrival="315.00" arrivalLane="C2E_1" arrivalPos="489.60" arrivalSpeed="14.27" duration="77.00" routeLength="997.90" waitingTime="0.00" waitingCount="0" stopTime="0.00" timeLoss="6.66" rerouteNo="0" devices="tripinfo_flow_off_W2E.8 routing_flow_off_W2E.8 emissions_flow_off_W2E.8" vType="moto" speedFactor="1.03" vaporized="">
        <emissions CO_abs="3938.53" CO2_abs="105634.03" HC_abs="1234.72" PMx_abs="24.57" NOx_abs="161.82" fuel_abs="34252.29" electricity_abs="0.00"/>
    </tripinfo>
    <tripinfo id="flow_off_E2W.7" depart="257.00" departLane="E2C_0" departPos="5.10" departSpeed="0.00" departDelay="0.00" arrival="327.00" arrivalLane="C2W_0" arrivalPos="489.60" arrivalSpeed="15.32" duration="70.00" routeLength="994.90" waitingTime="0.00" waitingCount="0" stopTime="0.00" timeLoss="6.22" rerouteNo="0" devices="tripinfo_flow_off_E2W.7 routing_flow_off_E2W.7 emissions_flow_off_E2W.7" vType="car" speedFactor="1.14" vaporized="">
        <emissions CO_abs="1250.09" CO2_abs="186080.80" HC_abs="8.42" PMx_abs="24.25" NOx_abs="66.36" fuel_abs="60324.99" electricity_abs="0.00"/>
    </tripinfo>
    <tripinfo id="flow_off_W2E.9" depart="254.00" departLane="W2C_0" departPos="2.10" departSpeed="0.00" departDelay="0.00" arrival="340.00" arrivalLane="C2E_0" arrivalPos="489.60" arrivalSpeed="11.03" duration="86.00" routeLength="997.90" waitingTime="0.00" waitingCount="0" stopTime="0.00" timeLoss="7.75" rerouteNo="0" devices="tripinfo_flow_off_W2E.9 routing_flow_off_W2E.9 emissions_flow_off_W2E.9" vType="moto" speedFactor="0.93" vaporized="">
        <emissions CO_abs="3428.22" CO2_abs="116513.34" HC_abs="1405.48" PMx_abs="28.43" NOx_abs="161.61" fuel_abs="37780.13" electricity_abs="0.00"/>
    </tripinfo>
    <tripinfo id="flow_off_S2N.8" depart="250.00" departLane="S2C_0" departPos="5.10" departSpeed="0.00" departDelay="0.00" arrival="342.00" arrivalLane="C2N_0" arrivalPos="489.60" arrivalSpeed="16.94" duration="92.00" routeLength="994.90" waitingTime="21.00" waitingCount="1" stopTime="0.00" timeLoss="34.99" rerouteNo="0" devices="tripinfo_flow_off_S2N.8 routing_flow_off_S2N.8 emissions_flow_off_S2N.8" vType="car" speedFactor="1.26" vaporized="">
        <emissions CO_abs="1737.37" CO2_abs="260603.36" HC_abs="11.64" PMx_abs="24.62" NOx_abs="94.05" fuel_abs="84484.07" electricity_abs="0.00"/>
    </tripinfo>
    <tripinfo id="flow_off_N2S.15" depart="245.00" departLane="N2C_0" departPos="5.10" departSpeed="0.00" departDelay="0.00" arrival="346.00" arrivalLane="C2S_1" arrivalPos="489.60" arrivalSpeed="14.51" duration="101.00" routeLength="994.90" waitingTime="22.00" waitingCount="1" stopTime="0.00" timeLoss="33.80" rerouteNo="0" devices="tripinfo_flow_off_N2S.15 routing_flow_off_N2S.15 emissions_flow_off_N2S.15" vType="car" speedFactor="1.07" vaporized="">
        <emissions CO_abs="1295.75" CO2_abs="247951.97" HC_abs="8.68" PMx_abs="23.56" NOx_abs="87.55" fuel_abs="80382.90" electricity_abs="0.00"/>
    </tripinfo>
    <tripinfo id="flow_off_N2S.14" depart="227.00" departLane="N2C_0" departPos="5.10" departSpeed="0.00" departDelay="0.00" arrival="347.00" arrivalLane="C2S_0" arrivalPos="489.60" arrivalSpeed="14.67" duration="120.00" routeLength="994.90" waitingTime="40.00" waitingCount="1" stopTime="0.00" timeLoss="52.21" rerouteNo="0" devices="tripinfo_flow_off_N2S.14 routing_flow_off_N2S.14 emissions_flow_off_N2S.14" vType="car" speedFactor="1.07" vaporized="">
        <emissions CO_abs="1238.40" CO2_abs="273837.37" HC_abs="8.31" PMx_abs="23.97" NOx_abs="98.11" fuel_abs="88774.89" electricity_abs="0.00"/>
    </tripinfo>
    <tripinfo id="flow_off_N2S.19" depart="264.00" departLane="N2C_0" departPos="5.10" departSpeed="0.00" departDelay="0.00" arrival="348.00" arrivalLane="C2S_1" arrivalPos="489.60" arrivalSpeed="14.47" duration="84.00" routeLength="994.90" waitingTime="5.00" waitingCount="1" stopTime="0.00" timeLoss="18.30" rerouteNo="0" devices="tripinfo_flow_off_N2S.19 routing_flow_off_N2S.19 emissions_flow_off_N2S.19" vType="car" speedFactor="1.10" vaporized="">
        <emissions CO_abs="1417.43" CO2_abs="232536.69" HC_abs="9.49" PMx_abs="24.16" NOx_abs="81.23" fuel_abs="75385.25" electricity_abs="0.00"/>
    </tripinfo>
    <tripinfo id="flow_off_S2N.10" depart="268.00" departLane="S2C_0" departPos="2.10" departSpeed="0.00" departDelay="0.00" arrival="350.00" arrivalLane="C2N_1" arrivalPos="489.60" arrivalSpeed="13.87" duration="82.00" routeLength="997.90" waitingTime="1.00" waitingCount="1" stopTime="0.00" timeLoss="14.66" rerouteNo="0" devices="tripinfo_flow_off_S2N.10 routing_flow_off_S2N.10 emissions_flow_off_S2N.10" vType="moto" speedFactor="1.08" vaporized="">
        <emissions CO_abs="4514.72" CO2_abs="133337.43" HC_abs="1567.15" PMx_abs="31.72" NOx_abs="190.43" fuel_abs="43235.34" electricity_abs="0.00"/>
    </tripinfo>
    <tripinfo id="flow_off_S2N.6" depart="225.00" departLane="S2C_0" departPos="5.10" departSpeed="0.00" departDelay="0.00" arrival="351.00" arrivalLane="C2N_0" arrivalPos="489.60" arrivalSpeed="12.27" duration="126.00" routeLength="994.90" waitingTime="39.00" waitingCount="1" stopTime="0.00" timeLoss="50.64" rerouteNo="0" devices="tripinfo_flow_off_S2N.6 routing_flow_off_S2N.6 emissions_flow_off_S2N.6" vType="car" speedFactor="0.96" vaporized="">
        <emissions CO_abs="1001.42" CO2_abs="261383.78" HC_abs="6.70" PMx_abs="22.03" NOx_abs="93.19" fuel_abs="84737.60" electricity_abs="0.00"/>
    </tripinfo>
    <tripinfo id="flow_off_S2N.7" depart="247.00" departLane="S2C_0" departPos="2.10" departSpeed="0.00" departDelay="0.00" arrival="353.00" arrivalLane="C2N_0" arrivalPos="489.60" arrivalSpeed="12.61" duration="106.00" routeLength="997.90" waitingTime="19.00" waitingCount="1" stopTime="0.00" timeLoss="32.58" rerouteNo="0" devices="tripinfo_flow_off_S2N.7 routing_flow_off_S2N.7 emissions_flow_off_S2N.7" vType="moto" speedFactor="0.99" vaporized="">
        <emissions CO_abs="3320.83" CO2_abs="138934.95" HC_abs="1764.31" PMx_abs="35.81" NOx_abs="166.38" fuel_abs="45050.68" electricity_abs="0.00"/>
    </tripinfo>
    <tripinfo id="flow_off_N2S.16" depart="248.00" departLane="N2C_0" departPos="5.10" departSpeed="0.00" departDelay="0.00" arrival="356.00" arrivalLane="C2S_0" arrivalPos="489.60" arrivalSpeed="11.12" duration="108.00" routeLength="994.90" waitingTime="14.00" waitingCount="1" stopTime="0.00" timeLoss="25.73" rerouteNo="0" devices="tripinfo_flow_off_N2S.16 routing_flow_off_N2S.16 emissions_flow_off_N2S.16" vType="car" speedFactor="0.88" vaporized="">
        <emissions CO_abs="921.84" CO2_abs="222563.03" HC_abs="6.16" PMx_abs="20.31" NOx_abs="76.63" fuel_abs="72152.17" electricity_abs="0.00"/>
    </tripinfo>