<?xml version="1.0" encoding="UTF-8"?>

<!-- generated on 2026-05-02T23:42:55.487701+07:00 by Eclipse SUMO sumo 1.26.0
<sumoConfiguration xmlns:xsi="http://www.w3.org/2001/XMLSchema-instance" xsi:noNamespaceSchemaLocation="http://sumo.dlr.de/xsd/sumoConfiguration.xsd">

    <input>
        <net-file value="sumo/network.net.xml"/>
        <route-files value="sumo/routes.rou.xml"/>
        <additional-files value="sumo/tls_webster.add.xml,sumo/traffic.add.xml"/>
    </input>

    <output>
        <tripinfo-output value="C:\Users\DELL\Downloads\project\runs\exp_20260502_225813\evaluation\tripinfo_webster.xml"/>
        <tripinfo-output.write-unfinished value="true"/>
    </output>

    <time>
        <begin value="0"/>
        <end value="7200"/>
    </time>

    <processing>
        <time-to-teleport value="300"/>
        <waiting-time-memory value="10000"/>
    </processing>

    <report>
        <verbose value="false"/>
        <no-step-log value="true"/>
    </report>

    <emissions>
        <device.emissions.probability value="1.0"/>
    </emissions>

    <traci_server>
        <remote-port value="51104"/>
    </traci_server>

    <random_number>
        <seed value="42"/>
    </random_number>

</sumoConfiguration>
-->

<tripinfos xmlns:xsi="http://www.w3.org/2001/XMLSchema-instance" xsi:noNamespaceSchemaLocation="http://sumo.dlr.de/xsd/tripinfo_file.xsd">
    <tripinfo id="flow_off_W2E.0" depart="6.00" departLane="W2C_0" departPos="5.10" departSpeed="0.00" departDelay="0.00" arrival="86.00" arrivalLane="C2E_0" arrivalPos="489.60" arrivalSpeed="12.79" duration="80.00" routeLength="994.90" waitingTime="0.00" waitingCount="0" stopTime="0.00" timeLoss="6.75" rerouteNo="0" devices="tripinfo_flow_off_W2E.0 routing_flow_off_W2E.0 emissions_flow_off_W2E.0" vType="car" speedFactor="0.98" vaporized="">
        <emissions CO_abs="980.19" CO2_abs="176601.86" HC_abs="6.57" PMx_abs="20.59" NOx_abs="61.68" fuel_abs="57252.06" electricity_abs="0.00"/>
    </tripinfo>
    <tripinfo id="flow_off_W2E.2" depart="12.00" departLane="W2C_0" departPos="5.10" departSpeed="0.00" departDelay="2.00" arrival="88.00" arrivalLane="C2E_0" arrivalPos="489.60" arrivalSpeed="14.03" duration="76.00" routeLength="994.90" waitingTime="0.00" waitingCount="0" stopTime="0.00" timeLoss="6.11" rerouteNo="0" devices="tripinfo_flow_off_W2E.2 routing_flow_off_W2E.2 emissions_flow_off_W2E.2" vType="car" speedFactor="1.03" vaporized="">
        <emissions CO_abs="1161.33" CO2_abs="188456.61" HC_abs="7.78" PMx_abs="22.10" NOx_abs="66.26" fuel_abs="61095.16" electricity_abs="0.00"/>
    </tripinfo>
    <tripinfo id="flow_off_E2W.0" depart="14.00" departLane="E2C_0" departPos="2.10" departSpeed="0.00" departDelay="0.00" arrival="90.00" arrivalLane="C2W_0" arrivalPos="489.60" arrivalSpeed="13.07" duration="76.00" routeLength="997.90" waitingTime="0.00" waitingCount="0" stopTime="0.00" timeLoss="7.20" rerouteNo="0" devices="tripinfo_flow_off_E2W.0 routing_flow_off_E2W.0 emissions_flow_off_E2W.0" vType="moto" speedFactor="1.05" vaporized="">
        <emissions CO_abs="4143.79" CO2_abs="113144.79" HC_abs="1352.57" PMx_abs="27.48" NOx_abs="166.55" fuel_abs="36687.88" electricity_abs="0.00"/>
    </tripinfo>
    <tripinfo id="flow_off_W2E.1" depart="9.00" departLane="W2C_0" departPos="5.10" departSpeed="0.00" departDelay="1.00" arrival="93.00" arrivalLane="C2E_0" arrivalPos="489.60" arrivalSpeed="12.67" duration="84.00" routeLength="994.90" waitingTime="0.00" waitingCount="0" stopTime="0.00" timeLoss="6.97" rerouteNo="0" devices="tripinfo_flow_off_W2E.1 routing_flow_off_W2E.1 emissions_flow_off_W2E.1" vType="car" speedFactor="0.93" vaporized="">
        <emissions CO_abs="911.79" CO2_abs="182862.34" HC_abs="6.11" PMx_abs="21.48" NOx_abs="63.72" fuel_abs="59281.72" electricity_abs="0.00"/>
    </tripinfo>
    <tripinfo id="flow_off_W2E.3" depart="24.00" departLane="W2C_0" departPos="5.10" departSpeed="0.00" departDelay="0.00" arrival="98.00" arrivalLane="C2E_0" arrivalPos="489.60" arrivalSpeed="14.62" duration="74.00" routeLength="994.90" waitingTime="0.00" waitingCount="0" stopTime="0.00" timeLoss="5.94" rerouteNo="0" devices="tripinfo_flow_off_W2E.3 routing_flow_off_W2E.3 emissions_flow_off_W2E.3" vType="car" speedFactor="1.05" vaporized="">
        <emissions CO_abs="1125.41" CO2_abs="177488.14" HC_abs="7.54" PMx_abs="21.00" NOx_abs="62.49" fuel_abs="57539.31" electricity_abs="0.00"/>
    </tripinfo>
    <tripinfo id="flow_off_N2S.0" depart="5.00" departLane="N2C_0" departPos="2.10" departSpeed="0.00" departDelay="0.00" arrival="112.00" arrivalLane="C2S_0" arrivalPos="489.60" arrivalSpeed="15.12" duration="107.00" routeLength="997.90" waitingTime="35.00" waitingCount="1" stopTime="0.00" timeLoss="45.15" rerouteNo="0" devices="tripinfo_flow_off_N2S.0 routing_flow_off_N2S.0 emissions_flow_off_N2S.0" vType="moto" speedFactor="1.16" vaporized="">
        <emissions CO_abs="5272.41" CO2_abs="169947.81" HC_abs="2159.92" PMx_abs="43.06" NOx_abs="220.14" fuel_abs="55106.75" electricity_abs="0.00"/>
    </tripinfo>
    <tripinfo id="flow_off_S2N.2" depart="20.00" departLane="S2C_0" departPos="5.10" departSpeed="0.00" departDelay="2.00" arrival="115.00" arrivalLane="C2N_0" arrivalPos="489.60" arrivalSpeed="14.38" duration="95.00" routeLength="994.90" waitingTime="16.00" waitingCount="1" stopTime="0.00" timeLoss="29.35" rerouteNo="0" devices="tripinfo_flow_off_S2N.2 routing_flow_off_S2N.2 emissions_flow_off_S2N.2" vType="car" speedFactor="1.09" vaporized="">
        <emissions CO_abs="1235.06" CO2_abs="232952.11" HC_abs="8.28" PMx_abs="23.39" NOx_abs="81.80" fuel_abs="75520.09" electricity_abs="0.00"/>
    </tripinfo>
    <tripinfo id="flow_off_N2S.1" depart="21.00" departLane="N2C_0" departPos="2.10" departSpeed="0.00" departDelay="0.00" arrival="119.00" arrivalLane="C2S_0" arrivalPos="489.60" arrivalSpeed="12.64" duration="98.00" routeLength="997.90" waitingTime="12.00" waitingCount="1" stopTime="0.00" timeLoss="25.38" rerouteNo="0" devices="tripinfo_flow_off_N2S.1 routing_flow_off_N2S.1 emissions_flow_off_N2S.1" vType="moto" speedFactor="1.00" vaporized="">
        <emissions CO_abs="3875.68" CO2_abs="140971.72" HC_abs="1746.22" PMx_abs="35.33" NOx_abs="181.82" fuel_abs="45711.03" electricity_abs="0.00"/>
    </tripinfo>
    <tripinfo id="flow_off_S2N.0" depart="9.00" departLane="S2C_0" departPos="12.10" departSpeed="0.00" departDelay="0.00" arrival="121.00" arrivalLane="C2N_0" arrivalPos="489.60" arrivalSpeed="13.67" duration="112.00" routeLength="987.90" waitingTime="22.00" waitingCount="1" stopTime="0.00" timeLoss="40.37" rerouteNo="0" devices="tripinfo_flow_off_S2N.0 routing_flow_off_S2N.0 emissions_flow_off_S2N.0" vType="bus" speedFactor="1.00" vaporized="">
        <emissions CO_abs="274.50" CO2_abs="1282647.21" HC_abs="23.57" PMx_abs="166.51" NOx_abs="535.60" fuel_abs="412200.46" electricity_abs="0.00"/>
    </tripinfo>
    <tripinfo id="flow_off_N2S.2" depart="29.00" departLane="N2C_0" departPos="5.10" departSpeed="0.00" departDelay="0.00" arrival="122.00" arrivalLane="C2S_0" arrivalPos="489.60" arrivalSpeed="12.19" duration="93.00" routeLength="994.90" waitingTime="3.00" waitingCount="1" stopTime="0.00" timeLoss="15.67" rerouteNo="0" devices="tripinfo_flow_off_N2S.2 routing_flow_off_N2S.2 emissions_flow_off_N2S.2" vType="car" speedFactor="0.94" vaporized="">
        <emissions CO_abs="1054.33" CO2_abs="217622.70" HC_abs="7.04" PMx_abs="22.31" NOx_abs="74.48" fuel_abs="70550.43" electricity_abs="0.00"/>
    </tripinfo>
    <tripinfo id="flow_off_S2N.1" depart="16.00" departLane="S2C_0" departPos="12.10" departSpeed="0.00" departDelay="0.00" arrival="123.00" arrivalLane="C2N_1" arrivalPos="489.60" arrivalSpeed="13.73" duration="107.00" routeLength="987.90" waitingTime="15.00" waitingCount="1" stopTime="0.00" timeLoss="35.13" rerouteNo="0" devices="tripinfo_flow_off_S2N.1 routing_flow_off_S2N.1 emissions_flow_off_S2N.1" vType="bus" speedFactor="1.00" vaporized="">
        <emissions CO_abs="263.19" CO2_abs="1267298.86" HC_abs="22.88" PMx_abs="159.13" NOx_abs="513.60" fuel_abs="407267.74" electricity_abs="0.00"/>
    </tripinfo>
    <tripinfo id="flow_off_S2N.3" depart="34.00" departLane="S2C_0" departPos="5.10" departSpeed="0.00" departDelay="0.00" arrival="124.00" arrivalLane="C2N_0" arrivalPos="489.60" arrivalSpeed="12.78" duration="90.00" routeLength="994.90" waitingTime="2.00" waitingCount="1" stopTime="0.00" timeLoss="17.68" rerouteNo="0" devices="tripinfo_flow_off_S2N.3 routing_flow_off_S2N.3 emissions_flow_off_S2N.3" vType="car" speedFactor="0.99" vaporized="">
        <emissions CO_abs="1151.00" CO2_abs="221360.62" HC_abs="7.70" PMx_abs="22.74" NOx_abs="76.72" fuel_abs="71762.15" electricity_abs="0.00"/>
    </tripinfo>
    <tripinfo id="flow_off_S2N.4" depart="37.00" departLane="S2C_0" departPos="5.10" departSpeed="0.00" departDelay="1.00" arrival="125.00" arrivalLane="C2N_1" arrivalPos="489.60" arrivalSpeed="13.74" duration="88.00" routeLength="994.90" waitingTime="2.00" waitingCount="1" stopTime="0.00" timeLoss="17.59" rerouteNo="0" devices="tripinfo_flow_off_S2N.4 routing_flow_off_S2N.4 emissions_flow_off_S2N.4" vType="car" speedFactor="1.02" vaporized="">
        <emissions CO_abs="1184.46" CO2_abs="214411.14" HC_abs="7.91" PMx_abs="21.50" NOx_abs="74.11" fuel_abs="69509.13" electricity_abs="0.00"/>
    </tripinfo>
    <tripinfo id="flow_off_N2S.5" depart="52.00" departLane="N2C_0" departPos="5.10" departSpeed="0.00" departDelay="2.00" arrival="127.00" arrivalLane="C2S_1" arrivalPos="489.60" arrivalSpeed="14.47" duration="75.00" routeLength="994.90" waitingTime="0.00" waitingCount="0" stopTime="0.00" timeLoss="6.66" rerouteNo="0" devices="tripinfo_flow_off_N2S.5 routing_flow_off_N2S.5 emissions_flow_off_N2S.5" vType="car" speedFactor="1.05" vaporized="">
        <emissions CO_abs="1166.35" CO2_abs="188965.88" HC_abs="7.82" PMx_abs="22.65" NOx_abs="66.64" fuel_abs="61260.28" electricity_abs="0.00"/>
    </tripinfo>
    <tripinfo id="flow_off_N2S.3" depart="36.00" departLane="N2C_0" departPos="2.10" departSpeed="0.00" departDelay="0.00" arrival="128.00" arrivalLane="C2S_0" arrivalPos="489.60" arrivalSpeed="11.44" duration="92.00" routeLength="997.90" waitingTime="0.00" waitingCount="0" stopTime="0.00" timeLoss="9.23" rerouteNo="0" devices="tripinfo_flow_off_N2S.3 routing_flow_off_N2S.3 emissions_flow_off_N2S.3" vType="moto" speedFactor="0.88" vaporized="">
        <emissions CO_abs="2990.36" CO2_abs="117278.59" HC_abs="1436.37" PMx_abs="29.33" NOx_abs="152.55" fuel_abs="38028.37" electricity_abs="0.00"/>
    </tripinfo>
    <tripinfo id="flow_off_N2S.4" depart="49.00" departLane="N2C_0" departPos="5.10" departSpeed="0.00" departDelay="0.00" arrival="129.00" arrivalLane="C2S_1" arrivalPos="489.60" arrivalSpeed="13.08" duration="80.00" routeLength="994.90" waitingTime="0.00" waitingCount="0" stopTime="0.00" timeLoss="7.29" rerouteNo="0" devices="tripinfo_flow_off_N2S.4 routing_flow_off_N2S.4 emissions_flow_off_N2S.4" vType="car" speedFactor="0.99" vaporized="">
        <emissions CO_abs="1041.24" CO2_abs="187430.13" HC_abs="6.98" PMx_abs="22.01" NOx_abs="65.41" fuel_abs="60762.46" electricity_abs="0.00"/>
    </tripinfo>
    <tripinfo id="flow_off_N2S.6" depart="64.00" departLane="N2C_0" departPos="5.10" departSpeed="0.00" departDelay="0.00" arrival="145.00" arrivalLane="C2S_0" arrivalPos="489.60" arrivalSpeed="12.65" duration="81.00" routeLength="994.90" waitingTime="0.00" waitingCount="0" stopTime="0.00" timeLoss="6.29" rerouteNo="0" devices="tripinfo_flow_off_N2S.6 routing_flow_off_N2S.6 emissions_flow_off_N2S.6" vType="car" speedFactor="0.97" vaporized="">
        <emissions CO_abs="963.21" CO2_abs="178453.99" HC_abs="6.46" PMx_abs="21.21" NOx_abs="62.33" fuel_abs="57852.54" electricity_abs="0.00"/>
    </tripinfo>
    <tripinfo id="flow_off_W2E.4" depart="47.00" departLane="W2C_0" departPos="5.10" departSpeed="0.00" departDelay="0.00" arrival="153.00" arrivalLane="C2E_0" arrivalPos="489.60" arrivalSpeed="14.28" duration="106.00" routeLength="994.90" waitingTime="27.00" waitingCount="1" stopTime="0.00" timeLoss="39.84" rerouteNo="0" devices="tripinfo_flow_off_W2E.4 routing_flow_off_W2E.4 emissions_flow_off_W2E.4" vType="car" speedFactor="1.10" vaporized="">
        <emissions CO_abs="1429.86" CO2_abs="256939.52" HC_abs="9.55" PMx_abs="21.77" NOx_abs="91.27" fuel_abs="83296.45" electricity_abs="0.00"/>
    </tripinfo>
    <tripinfo id="flow_off_E2W.2" depart="85.00" departLane="E2C_0" departPos="5.10" departSpeed="0.00" departDelay="0.00" arrival="158.00" arrivalLane="C2W_0" arrivalPos="489.60" arrivalSpeed="14.76" duration="73.00" routeLength="994.90" waitingTime="0.00" waitingCount="0" stopTime="0.00" timeLoss="5.87" rerouteNo="0" devices="tripinfo_flow_off_E2W.2 routing_flow_off_E2W.2 emissions_flow_off_E2W.2" vType="car" speedFactor="1.08" vaporized="">
        <emissions CO_abs="1188.68" CO2_abs="189809.73" HC_abs="7.99" PMx_abs="24.27" NOx_abs="67.27" fuel_abs="61533.90" electricity_abs="0.00"/>
    </tripinfo>
    <tripinfo id="flow_off_W2E.5" depart="62.00" departLane="W2C_0" departPos="2.10" departSpeed="0.00" departDelay="0.00" arrival="160.00" arrivalLane="C2E_0" arrivalPos="489.60" arrivalSpeed="10.66" duration="98.00" routeLength="997.90" waitingTime="7.00" waitingCount="1" stopTime="0.00" timeLoss="18.32" rerouteNo="0" devices="tripinfo_flow_off_W2E.5 routing_flow_off_W2E.5 emissions_flow_off_W2E.5" vType="moto" speedFactor="0.91" vaporized="">
        <emissions CO_abs="3181.54" CO2_abs="129911.16" HC_abs="1592.48" PMx_abs="32.09" NOx_abs="165.23" fuel_abs="42124.48" electricity_abs="0.00"/>
    </tripinfo>
    <tripinfo id="flow_off_E2W.1" depart="72.00" departLane="E2C_0" departPos="2.10" departSpeed="0.00" departDelay="0.00" arrival="166.00" arrivalLane="C2W_0" arrivalPos="489.60" arrivalSpeed="10.31" duration="94.00" routeLength="997.90" waitingTime="0.00" waitingCount="0" stopTime="0.00" timeLoss="8.54" rerouteNo="0" devices="tripinfo_flow_off_E2W.1 routing_flow_off_E2W.1 emissions_flow_off_E2W.1" vType="moto" speedFactor="0.85" vaporized="">
        <emissions CO_abs="2780.98" CO2_abs="113504.05" HC_abs="1374.32" PMx_abs="27.92" NOx_abs="148.23" fuel_abs="36804.37" electricity_abs="0.00"/>
    </tripinfo>
    <tripinfo id="flow_off_N2S.8" depart="104.00" departLane="N2C_0" departPos="5.10" departSpeed="0.00" departDelay="0.00" arrival="190.00" arrivalLane="C2S_0" arrivalPos="489.60" arrivalSpeed="15.97" duration="86.00" routeLength="994.90" waitingTime="11.00" waitingCount="1" stopTime="0.00" timeLoss="23.45" rerouteNo="0" devices="tripinfo_flow_off_N2S.8 routing_flow_off_N2S.8 emissions_flow_off_N2S.8" vType="car" speedFactor="1.15" vaporized="">
        <emissions CO_abs="1459.74" CO2_abs="233234.85" HC_abs="9.77" PMx_abs="23.53" NOx_abs="82.12" fuel_abs="75611.56" electricity_abs="0.00"/>
    </tripinfo>
    <tripinfo id="flow_off_S2N.6" depart="107.00" departLane="S2C_0" departPos="5.10" departSpeed="0.00" departDelay="0.00" arrival="193.00" arrivalLane="C2N_0" arrivalPos="489.60" arrivalSpeed="13.66" duration="86.00" routeLength="994.90" waitingTime="6.00" waitingCount="1" stopTime="0.00" timeLoss="17.93" rerouteNo="0" devices="tripinfo_flow_off_S2N.6 routing_flow_off_S2N.6 emissions_flow_off_S2N.6" vType="car" speedFactor="1.06" vaporized="">
        <emissions CO_abs="1210.00" CO2_abs="216312.19" HC_abs="8.11" PMx_abs="22.89" NOx_abs="75.49" fuel_abs="70125.51" electricity_abs="0.00"/>
    </tripinfo>
    <tripinfo id="flow_off_N2S.7" depart="84.00" departLane="N2C_0" departPos="5.10" departSpeed="0.00" departDelay="0.00" arrival="198.00" arrivalLane="C2S_0" arrivalPos="489.60" arrivalSpeed="11.79" duration="114.00" routeLength="994.90" waitingTime="24.00" waitingCount="1" stopTime="0.00" timeLoss="36.73" rerouteNo="0" devices="tripinfo_flow_off_N2S.7 routing_flow_off_N2S.7 emissions_flow_off_N2S.7" vType="car" speedFactor="0.93" vaporized="">
        <emissions CO_abs="973.01" CO2_abs="238091.43" HC_abs="6.51" PMx_abs="21.52" NOx_abs="83.97" fuel_abs="77186.48" electricity_abs="0.00"/>
    </tripinfo>
    <tripinfo id="flow_off_S2N.5" depart="74.00" departLane="S2C_0" departPos="2.10" departSpeed="0.00" departDelay="0.00" arrival="199.00" arrivalLane="C2N_0" arrivalPos="489.60" arrivalSpeed="11.85" duration="125.00" routeLength="997.90" waitingTime="32.00" waitingCount="1" stopTime="0.00" timeLoss="45.12" rerouteNo="0" devices="tripinfo_flow_off_S2N.5 routing_flow_off_S2N.5 emissions_flow_off_S2N.5" vType="moto" speedFactor="0.91" vaporized="">
        <emissions CO_abs="3324.90" CO2_abs="170722.94" HC_abs="2242.77" PMx_abs="45.85" NOx_abs="185.32" fuel_abs="55358.48" electricity_abs="0.00"/>
    </tripinfo>
    <tripinfo id="flow_off_S2N.7" depart="119.00" departLane="S2C_0" departPos="12.10" departSpeed="0.00" departDelay="0.00" arrival="199.00" arrivalLane="C2N_1" arrivalPos="489.60" arrivalSpeed="13.75" duration="80.00" routeLength="987.90" waitingTime="0.00" waitingCount="0" stopTime="0.00" timeLoss="8.82" rerouteNo="0" devices="tripinfo_flow_off_S2N.7 routing_flow_off_S2N.7 emissions_flow_off_S2N.7" vType="bus" speedFactor="1.00" vaporized="">
        <emissions CO_abs="196.64" CO2_abs="1043935.37" HC_abs="18.93" PMx_abs="129.24" NOx_abs="419.17" fuel_abs="335483.17" electricity_abs="0.00"/>
    </tripinfo>
    <tripinfo id="flow_off_N2S.9" depart="122.00" departLane="N2C_0" departPos="12.10" departSpeed="0.00" departDelay="0.00" arrival="202.00" arrivalLane="C2S_0" arrivalPos="489.60" arrivalSpeed="13.30" duration="80.00" routeLength="987.90" waitingTime="0.00" waitingCount="0" stopTime="0.00" timeLoss="8.72" rerouteNo="0" devices="tripinfo_flow_off_N2S.9 routing_flow_off_N2S.9 emissions_flow_off_N2S.9" vType="bus" speedFactor="1.00" vaporized="">
        <emissions CO_abs="192.23" CO2_abs="1024897.22" HC_abs="18.49" PMx_abs="125.56" NOx_abs="408.13" fuel_abs="329365.24" electricity_abs="0.00"/>
    </tripinfo>
    <tripinfo id="flow_off_S2N.8" depart="137.00" departLane="S2C_0" departPos="5.10" departSpeed="0.00" departDelay="0.00" arrival="215.00" arrivalLane="C2N_0" arrivalPos="489.60" arrivalSpeed="14.15" duration="78.00" routeLength="994.90" waitingTime="0.00" waitingCount="0" stopTime="0.00" timeLoss="6.84" rerouteNo="0" devices="tripinfo_flow_off_S2N.8 routing_flow_off_S2N.8 emissions_flow_off_S2N.8" vType="car" speedFactor="1.02" vaporized="">
        <emissions CO_abs="1108.38" CO2_abs="186368.80" HC_abs="7.43" PMx_abs="21.91" NOx_abs="65.46" fuel_abs="60418.35" electricity_abs="0.00"/>
    </tripinfo>
    <tripinfo id="flow_off_W2E.7" depart="145.00" departLane="W2C_0" departPos="5.10" departSpeed="0.00" departDelay="0.00" arrival="229.00" arrivalLane="C2E_0" arrivalPos="489.60" arrivalSpeed="15.15" duration="84.00" routeLength="994.90" waitingTime="7.00" waitingCount="1" stopTime="0.00" timeLoss="19.39" rerouteNo="0" devices="tripinfo_flow_off_W2E.7 routing_flow_off_W2E.7 emissions_flow_off_W2E.7" vType="car" speedFactor="1.12" vaporized="">
        <emissions CO_abs="1437.59" CO2_abs="226755.16" HC_abs="9.61" PMx_abs="22.65" NOx_abs="79.80" fuel_abs="73510.85" electricity_abs="0.00"/>
    </tripinfo>
    <tripinfo id="flow_off_W2E.8" depart="153.00" departLane="W2C_0" departPos="5.10" departSpeed="0.00" departDelay="0.00" arrival="229.00" arrivalLane="C2E_1" arrivalPos="489.60" arrivalSpeed="16.11" duration="76.00" routeLength="994.90" waitingTime="2.00" waitingCount="1" stopTime="0.00" timeLoss="16.62" rerouteNo="0" devices="tripinfo_flow_off_W2E.8 routing_flow_off_W2E.8 emissions_flow_off_W2E.8" vType="car" speedFactor="1.23" vaporized="">
        <emissions CO_abs="1656.60" CO2_abs="229617.97" HC_abs="11.10" PMx_abs="23.97" NOx_abs="81.38" fuel_abs="74438.81" electricity_abs="0.00"/>
    </tripinfo>
    <tripinfo id="flow_off_E2W.4" depart="118.00" departLane="E2C_0" departPos="5.10" departSpeed="0.00" departDelay="0.00" arrival="231.00" arrivalLane="C2W_0" arrivalPos="489.60" arrivalSpeed="14.02" duration="113.00" routeLength="994.90" waitingTime="32.00" waitingCount="1" stopTime="0.00" timeLoss="45.46" rerouteNo="0" devices="tripinfo_flow_off_E2W.4 routing_flow_off_E2W.4 emissions_flow_off_E2W.4" vType="car" speedFactor="1.06" vaporized="">
        <emissions CO_abs="1263.10" CO2_abs="257595.44" HC_abs="8.45" PMx_abs="21.92" NOx_abs="91.53" fuel_abs="83509.26" electricity_abs="0.00"/>
    </tripinfo>
    <tripinfo id="flow_off_E2W.6" depart="145.00" departLane="E2C_0" departPos="5.10" departSpeed="0.00" departDelay="0.00" arrival="232.00" arrivalLane="C2W_1" arrivalPos="489.60" arrivalSpeed="14.92" duration="87.00" routeLength="994.90" waitingTime="8.00" waitingCount="1" stopTime="0.00" timeLoss="21.10" rerouteNo="0" devices="tripinfo_flow_off_E2W.6 routing_flow_off_E2W.6 emissions_flow_off_E2W.6" vType="car" speedFactor="1.09" vaporized="">
        <emissions CO_abs="1444.78" CO2_abs="231844.54" HC_abs="9.65" PMx_abs="22.06" NOx_abs="81.26" fuel_abs="75160.81" electricity_abs="0.00"/>
    </tripinfo>
    <tripinfo id="flow_off_E2W.5" depart="142.00" departLane="E2C_0" departPos="5.10" departSpeed="0.00" departDelay="0.00" arrival="236.00" arrivalLane="C2W_0" arrivalPos="489.60" arrivalSpeed="13.73" duration="94.00" routeLength="994.90" waitingTime="9.00" waitingCount="1" stopTime="0.00" timeLoss="22.36" rerouteNo="0" devices="tripinfo_flow_off_E2W.5 routing_flow_off_E2W.5 emissions_flow_off_E2W.5" vType="car" speedFactor="1.00" vaporized="">
        <emissions CO_abs="1187.27" CO2_abs="226994.48" HC_abs="7.93" PMx_abs="21.72" NOx_abs="78.29" fuel_abs="73588.58" electricity_abs="0.00"/>
    </tripinfo>
    <tripinfo id="flow_off_W2E.6" depart="140.00" departLane="W2C_0" departPos="5.10" departSpeed="0.00" departDelay="0.00" arrival="237.00" arrivalLane="C2E_0" arrivalPos="489.60" arrivalSpeed="11.45" duration="97.00" routeLength="994.90" waitingTime="7.00" waitingCount="1" stopTime="0.00" timeLoss="18.63" rerouteNo="0" devices="tripinfo_flow_off_W2E.6 routing_flow_off_W2E.6 emissions_flow_off_W2E.6" vType="car" speedFactor="0.92" vaporized="">
        <emissions CO_abs="957.37" CO2_abs="217205.21" HC_abs="6.41" PMx_abs="22.31" NOx_abs="74.68" fuel_abs="70415.20" electricity_abs="0.00"/>
    </tripinfo>
    <tripinfo id="flow_off_E2W.7" depart="167.00" departLane="E2C_0" departPos="2.10" departSpeed="0.00" departDelay="0.00" arrival="242.00" arrivalLane="C2W_1" arrivalPos="489.60" arrivalSpeed="12.84" duration="75.00" routeLength="997.90" waitingTime="0.00" waitingCount="0" stopTime="0.00" timeLoss="7.01" rerouteNo="0" devices="tripinfo_flow_off_E2W.7 routing_flow_off_E2W.7 emissions_flow_off_E2W.7" vType="moto" speedFactor="1.07" vaporized="">
        <emissions CO_abs="4549.78" CO2_abs="114574.15" HC_abs="1327.23" PMx_abs="26.12" NOx_abs="182.20" fuel_abs="37151.07" electricity_abs="0.00"/>
    </tripinfo>
    <tripinfo id="flow_off_E2W.3" depart="102.00" departLane="E2C_0" departPos="5.10" departSpeed="0.00" departDelay="0.00" arrival="246.00" arrivalLane="C2W_0" arrivalPos="489.60" arrivalSpeed="9.93" duration="144.00" routeLength="994.90" waitingTime="34.00" waitingCount="1" stopTime="0.00" timeLoss="46.66" rerouteNo="0" devices="tripinfo_flow_off_E2W.3 routing_flow_off_E2W.3 emissions_flow_off_E2W.3" vType="car" speedFactor="0.74" vaporized="">
        <emissions CO_abs="656.96" CO2_abs="258037.59" HC_abs="4.39" PMx_abs="20.31" NOx_abs="90.56" fuel_abs="83653.02" electricity_abs="0.00"/>
    </tripinfo>
    <tripinfo id="flow_off_E2W.8" depart="173.00" departLane="E2C_0" departPos="5.10" departSpeed="0.00" departDelay="0.00" arrival="250.00" arrivalLane="C2W_0" arrivalPos="489.60" arrivalSpeed="13.66" duration="77.00" routeLength="994.90" waitingTime="0.00" waitingCount="0" stopTime="0.00" timeLoss="6.82" rerouteNo="0" devices="tripinfo_flow_off_E2W.8 routing_flow_off_E2W.8 emissions_flow_off_E2W.8" vType="car" speedFactor="1.03" vaporized="">
        <emissions CO_abs="1071.00" CO2_abs="184322.39" HC_abs="7.20" PMx_abs="22.81" NOx_abs="64.93" fuel_abs="59754.99" electricity_abs="0.00"/>
    </tripinfo>
    <tripinfo id="flow_off_S2N.10" depart="169.00" departLane="S2C_0" departPos="2.10" departSpeed="0.00" departDelay="0.00" arrival="271.00" arrivalLane="C2N_0" arrivalPos="489.60" arrivalSpeed="13.09" duration="102.00" routeLength="997.90" waitingTime="20.00" waitingCount="1" stopTime="0.00" timeLoss="30.95" rerouteNo="0" devices="tripinfo_flow_off_S2N.10 routing_flow_off_S2N.10 emissions_flow_off_S2N.10" vType="moto" speedFactor="1.02" vaporized="">
        <emissions CO_abs="4208.12" CO2_abs="154738.87" HC_abs="1951.11" PMx_abs="39.37" NOx_abs="195.36" fuel_abs="50175.18" electricity_abs="0.00"/>
    </tripinfo>
    <tripinfo id="flow_off_N2S.11" depart="156.00" departLane="N2C_0" departPos="5.10" departSpeed="0.00" departDelay="0.00" arrival="275.00" arrivalLane="C2S_0" arrivalPos="489.60" arrivalSpeed="11.79" duration="119.00" routeLength="994.90" waitingTime="30.00" waitingCount="1" stopTime="0.00" timeLoss="41.25" rerouteNo="0" devices="tripinfo_flow_off_N2S.11 routing_flow_off_N2S.11 emissions_flow_off_N2S.11" vType="car" speedFactor="0.92" vaporized="">
        <emissions CO_abs="1090.86" CO2_abs="256772.51" HC_abs="7.28" PMx_abs="20.99" NOx_abs="90.41" fuel_abs="83242.49" electricity_abs="0.00"/>
    </tripinfo>
    <tripinfo id="flow_off_S2N.9" depart="164.00" departLane="S2C_0" departPos="2.10" departSpeed="0.00" departDelay="0.00" arrival="275.00" arrivalLane="C2N_0" arrivalPos="489.60" arrivalSpeed="12.51" duration="111.00" routeLength="997.90" waitingTime="22.00" waitingCount="1" stopTime="0.00" timeLoss="35.20" rerouteNo="0" devices="tripinfo_flow_off_S2N.9 routing_flow_off_S2N.9 emissions_flow_off_S2N.9" vType="moto" speedFactor="0.96" vaporized="">
        <emissions CO_abs="3367.18" CO2_abs="150640.33" HC_abs="1948.33" PMx_abs="39.83" NOx_abs="172.91" fuel_abs="48846.41" electricity_abs="0.00"/>
    </tripinfo>
    <tripinfo id="flow_off_S2N.11" depart="172.00" departLane="S2C_0" departPos="12.10" departSpeed="0.00" departDelay="0.00" arrival="277.00" arrivalLane="C2N_0" arrivalPos="489.60" arrivalSpeed="13.38" duration="105.00" routeLength="987.90" waitingTime="14.00" waitingCount="1" stopTime="0.00" timeLoss="33.51" rerouteNo="0" devices="tripinfo_flow_off_S2N.11 routing_flow_off_S2N.11 emissions_flow_off_S2N.11" vType="bus" speedFactor="1.00" vaporized="">
        <emissions CO_abs="253.12" CO2_abs="1253405.64" HC_abs="21.97" PMx_abs="148.88" NOx_abs="485.46" fuel_abs="402804.19" electricity_abs="0.00"/>
    </tripinfo>
    <tripinfo id="flow_off_S2N.12" depart="178.00" departLane="S2C_0" departPos="12.10" departSpeed="0.00" departDelay="4.00" arrival="277.00" arrivalLane="C2N_1" arrivalPos="489.60" arrivalSpeed="13.81" duration="99.00" routeLength="987.90" waitingTime="8.00" waitingCount="1" stopTime="0.00" timeLoss="27.50" rerouteNo="0" devices="tripinfo_flow_off_S2N.12 routing_flow_off_S2N.12 emissions_flow_off_S2N.12" vType="bus" speedFactor="1.00" vaporized="">
        <emissions CO_abs="251.18" CO2_abs="1255563.96" HC_abs="22.26" PMx_abs="150.89" NOx_abs="489.39" fuel_abs="403496.11" electricity_abs="0.00"/>
    </tripinfo>
    <tripinfo id="flow_off_N2S.10" depart="145.00" departLane="N2C_0" departPos="15.10" departSpeed="0.00" departDelay="0.00" arrival="278.00" arrivalLane="C2S_0" arrivalPos="489.60" arrivalSpeed="13.35" duration="133.00" routeLength="984.90" waitingTime="38.00" waitingCount="1" stopTime="0.00" timeLoss="60.38" rerouteNo="0" devices="tripinfo_flow_off_N2S.10 routing_flow_off_N2S.10 emissions_flow_off_N2S.10" vType="truck" speedFactor="0.98" vaporized="">
        <emissions CO_abs="172.51" CO2_abs="548254.13" HC_abs="14.22" PMx_abs="195.59" NOx_abs="233.74" fuel_abs="176198.06" electricity_abs="0.00"/>
    </tripinfo>
    <tripinfo id="flow_off_N2S.12" depart="166.00" departLane="N2C_0" departPos="5.10" departSpeed="0.00" departDelay="0.00" arrival="278.00" arrivalLane="C2S_1" arrivalPos="489.60" arrivalSpeed="12.51" duration="112.00" routeLength="994.90" waitingTime="21.00" waitingCount="1" stopTime="0.00" timeLoss="32.81" rerouteNo="0" devices="tripinfo_flow_off_N2S.12 routing_flow_off_N2S.12 emissions_flow_off_N2S.12" vType="car" speedFactor="0.91" vaporized="">
        <emissions CO_abs="964.41" CO2_abs="238138.49" HC_abs="6.44" PMx_abs="21.61" NOx_abs="83.26" fuel_abs="77201.58" electricity_abs="0.00"/>
    </tripinfo>
    <tripinfo id="flow_off_N2S.13" depart="169.00" departLane="N2C_0" departPos="5.10" departSpeed="0.00" departDelay="2.00" arrival="280.00" arrivalLane="C2S_1" arrivalPos="489.60" arrivalSpeed="12.33" duration="111.00" routeLength="994.90" waitingTime="20.00" waitingCount="1" stopTime="0.00" timeLoss="31.80" rerouteNo="0" devices="tripinfo_flow_off_N2S.13 routing_flow_off_N2S.13 emissions_flow_off_N2S.13" vType="car" speedFactor="0.91" vaporized="">
        <emissions CO_abs="1036.56" CO2_abs="239239.90" HC_abs="6.91" PMx_abs="20.82" NOx_abs="83.39" fuel_abs="77558.55" electricity_abs="0.00"/>
    </tripinfo>
    <tripinfo id="flow_off_N2S.14" depart="178.00" departLane="N2C_0" departPos="12.10" departSpeed="0.00" departDelay="0.00" arrival="281.00" arrivalLane="C2S_0" arrivalPos="489.60" arrivalSpeed="13.37" duration="103.00" routeLength="987.90" waitingTime="9.00" waitingCount="1" stopTime="0.00" timeLoss="31.31" rerouteNo="0" devices="tripinfo_flow_off_N2S.14 routing_flow_off_N2S.14 emissions_flow_off_N2S.14" vType="bus" speedFactor="1.00" vaporized="">
        <emissions CO_abs="257.14" CO2_abs="1270360.64" HC_abs="22.58" PMx_abs="153.89" NOx_abs="497.76" fuel_abs="408251.63" electricity_abs="0.00"/>
    </tripinfo>