<?xml version="1.0" encoding="UTF-8"?>

<!-- generated on 2026-05-02T23:43:00.287516+07:00 by Eclipse SUMO libsumo 1.26.0
<libsumoConfiguration xmlns:xsi="http://www.w3.org/2001/XMLSchema-instance" xsi:noNamespaceSchemaLocation="http://sumo.dlr.de/xsd/libsumoConfiguration.xsd">

    <input>
        <net-file value="sumo/network.net.xml"/>
        <route-files value="sumo/routes.rou.xml"/>
        <additional-files value="sumo/tls.add.xml,sumo/traffic.add.xml"/>
    </input>

    <output>
        <tripinfo-output value="C:\Users\DELL\Downloads\project\runs\exp_20260502_225813\evaluation\tripinfo_rl.xml"/>
        <tripinfo-output.write-unfinished value="true"/>
    </output>

    <time>
        <begin value="0"/>
        <end value="7200"/>
    </time>

    <processing>
        <time-to-teleport value="300"/>
        <waiting-time-memory value="10000"/>
    </processing>

    <report>
        <verbose value="false"/>
        <no-warnings value="true"/>
        <no-step-log value="true"/>
    </report>

    <emissions>
        <device.emissions.probability value="1.0"/>
    </emissions>

    <random_number>
        <seed value="42"/>
    </random_number>

</libsumoConfiguration>
-->

<tripinfos xmlns:xsi="http://www.w3.org/2001/XMLSchema-instance" xsi:noNamespaceSchemaLocation="http://sumo.dlr.de/xsd/tripinfo_file.xsd">
    <tripinfo id="flow_off_W2E.0" depart="6.00" departLane="W2C_0" departPos="5.10" departSpeed="0.00" departDelay="0.00" arrival="86.00" arrivalLane="C2E_0" arrivalPos="489.60" arrivalSpeed="12.35" duration="80.00" routeLength="994.90" waitingTime="0.00" waitingCount="0" stopTime="0.00" timeLoss="6.80" rerouteNo="0" devices="tripinfo_flow_off_W2E.0 routing_flow_off_W2E.0 emissions_flow_off_W2E.0" vType="car" speedFactor="0.98" vaporized="">
        <emissions CO_abs="944.34" CO2_abs="174386.53" HC_abs="6.33" PMx_abs="20.85" NOx_abs="60.96" fuel_abs="56533.92" electricity_abs="0.00"/>
    </tripinfo>
    <tripinfo id="flow_off_N2S.0" depart="5.00" departLane="N2C_0" departPos="2.10" departSpeed="0.00" departDelay="0.00" arrival="90.00" arrivalLane="C2S_0" arrivalPos="489.60" arrivalSpeed="15.01" duration="85.00" routeLength="997.90" waitingTime="12.00" waitingCount="1" stopTime="0.00" timeLoss="22.74" rerouteNo="0" devices="tripinfo_flow_off_N2S.0 routing_flow_off_N2S.0 emissions_flow_off_N2S.0" vType="moto" speedFactor="1.16" vaporized="">
        <emissions CO_abs="5364.21" CO2_abs="143676.40" HC_abs="1711.43" PMx_abs="34.20" NOx_abs="209.54" fuel_abs="46587.80" electricity_abs="0.00"/>
    </tripinfo>
    <tripinfo id="flow_off_S2N.2" depart="20.00" departLane="S2C_0" departPos="5.10" departSpeed="0.00" departDelay="2.00" arrival="93.00" arrivalLane="C2N_1" arrivalPos="489.60" arrivalSpeed="14.22" duration="73.00" routeLength="994.90" waitingTime="0.00" waitingCount="0" stopTime="0.00" timeLoss="7.17" rerouteNo="0" devices="tripinfo_flow_off_S2N.2 routing_flow_off_S2N.2 emissions_flow_off_S2N.2" vType="car" speedFactor="1.09" vaporized="">
        <emissions CO_abs="1173.59" CO2_abs="178857.96" HC_abs="7.87" PMx_abs="21.21" NOx_abs="63.33" fuel_abs="57983.37" electricity_abs="0.00"/>
    </tripinfo>
    <tripinfo id="flow_off_S2N.0" depart="9.00" departLane="S2C_0" departPos="12.10" departSpeed="0.00" departDelay="0.00" arrival="95.00" arrivalLane="C2N_0" arrivalPos="489.60" arrivalSpeed="13.29" duration="86.00" routeLength="987.90" waitingTime="0.00" waitingCount="0" stopTime="0.00" timeLoss="13.99" rerouteNo="0" devices="tripinfo_flow_off_S2N.0 routing_flow_off_S2N.0 emissions_flow_off_S2N.0" vType="bus" speedFactor="1.00" vaporized="">
        <emissions CO_abs="214.18" CO2_abs="1174934.17" HC_abs="19.93" PMx_abs="127.67" NOx_abs="421.36" fuel_abs="377584.69" electricity_abs="0.00"/>
    </tripinfo>
    <tripinfo id="flow_off_S2N.1" depart="16.00" departLane="S2C_0" departPos="12.10" departSpeed="0.00" departDelay="0.00" arrival="97.00" arrivalLane="C2N_0" arrivalPos="489.60" arrivalSpeed="13.36" duration="81.00" routeLength="987.90" waitingTime="0.00" waitingCount="0" stopTime="0.00" timeLoss="9.35" rerouteNo="0" devices="tripinfo_flow_off_S2N.1 routing_flow_off_S2N.1 emissions_flow_off_S2N.1" vType="bus" speedFactor="1.00" vaporized="">
        <emissions CO_abs="191.87" CO2_abs="1046087.64" HC_abs="18.44" PMx_abs="121.96" NOx_abs="400.34" fuel_abs="336176.23" electricity_abs="0.00"/>
    </tripinfo>
    <tripinfo id="flow_off_N2S.1" depart="21.00" departLane="N2C_0" departPos="2.10" departSpeed="0.00" departDelay="0.00" arrival="100.00" arrivalLane="C2S_0" arrivalPos="489.60" arrivalSpeed="13.20" duration="79.00" routeLength="997.90" waitingTime="0.00" waitingCount="0" stopTime="0.00" timeLoss="6.77" rerouteNo="0" devices="tripinfo_flow_off_N2S.1 routing_flow_off_N2S.1 emissions_flow_off_N2S.1" vType="moto" speedFactor="1.00" vaporized="">
        <emissions CO_abs="3939.10" CO2_abs="112425.93" HC_abs="1323.80" PMx_abs="26.40" NOx_abs="168.47" fuel_abs="36454.62" electricity_abs="0.00"/>
    </tripinfo>
    <tripinfo id="flow_off_E2W.0" depart="14.00" departLane="E2C_0" departPos="2.10" departSpeed="0.00" departDelay="0.00" arrival="109.00" arrivalLane="C2W_0" arrivalPos="489.60" arrivalSpeed="13.07" duration="95.00" routeLength="997.90" waitingTime="15.00" waitingCount="1" stopTime="0.00" timeLoss="26.36" rerouteNo="0" devices="tripinfo_flow_off_E2W.0 routing_flow_off_E2W.0 emissions_flow_off_E2W.0" vType="moto" speedFactor="1.05" vaporized="">
        <emissions CO_abs="4370.56" CO2_abs="148638.84" HC_abs="1857.21" PMx_abs="37.71" NOx_abs="192.73" fuel_abs="48197.21" electricity_abs="0.00"/>
    </tripinfo>
    <tripinfo id="flow_off_W2E.2" depart="12.00" departLane="W2C_0" departPos="5.10" departSpeed="0.00" departDelay="2.00" arrival="110.00" arrivalLane="C2E_0" arrivalPos="489.60" arrivalSpeed="13.60" duration="98.00" routeLength="994.90" waitingTime="16.00" waitingCount="1" stopTime="0.00" timeLoss="27.95" rerouteNo="0" devices="tripinfo_flow_off_W2E.2 routing_flow_off_W2E.2 emissions_flow_off_W2E.2" vType="car" speedFactor="1.03" vaporized="">
        <emissions CO_abs="1266.71" CO2_abs="237878.45" HC_abs="8.47" PMx_abs="22.00" NOx_abs="83.58" fuel_abs="77117.06" electricity_abs="0.00"/>
    </tripinfo>
    <tripinfo id="flow_off_W2E.3" depart="24.00" departLane="W2C_0" departPos="5.10" departSpeed="0.00" departDelay="0.00" arrival="112.00" arrivalLane="C2E_1" arrivalPos="489.60" arrivalSpeed="14.33" duration="88.00" routeLength="994.90" waitingTime="5.00" waitingCount="1" stopTime="0.00" timeLoss="19.01" rerouteNo="0" devices="tripinfo_flow_off_W2E.3 routing_flow_off_W2E.3 emissions_flow_off_W2E.3" vType="car" speedFactor="1.05" vaporized="">
        <emissions CO_abs="1193.29" CO2_abs="217928.53" HC_abs="8.00" PMx_abs="23.08" NOx_abs="75.61" fuel_abs="70649.55" electricity_abs="0.00"/>
    </tripinfo>
    <tripinfo id="flow_off_W2E.1" depart="9.00" departLane="W2C_0" departPos="5.10" departSpeed="0.00" departDelay="1.00" arrival="114.00" arrivalLane="C2E_0" arrivalPos="489.60" arrivalSpeed="12.09" duration="105.00" routeLength="994.90" waitingTime="16.00" waitingCount="1" stopTime="0.00" timeLoss="27.57" rerouteNo="0" devices="tripinfo_flow_off_W2E.1 routing_flow_off_W2E.1 emissions_flow_off_W2E.1" vType="car" speedFactor="0.93" vaporized="">
        <emissions CO_abs="1030.38" CO2_abs="231570.37" HC_abs="6.88" PMx_abs="21.66" NOx_abs="80.64" fuel_abs="75072.27" electricity_abs="0.00"/>
    </tripinfo>
    <tripinfo id="flow_off_S2N.4" depart="37.00" departLane="S2C_0" departPos="5.10" departSpeed="0.00" departDelay="1.00" arrival="126.00" arrivalLane="C2N_0" arrivalPos="489.60" arrivalSpeed="13.07" duration="89.00" routeLength="994.90" waitingTime="6.00" waitingCount="1" stopTime="0.00" timeLoss="18.76" rerouteNo="0" devices="tripinfo_flow_off_S2N.4 routing_flow_off_S2N.4 emissions_flow_off_S2N.4" vType="car" speedFactor="1.02" vaporized="">
        <emissions CO_abs="1247.99" CO2_abs="221673.40" HC_abs="8.34" PMx_abs="21.61" NOx_abs="77.08" fuel_abs="71863.47" electricity_abs="0.00"/>
    </tripinfo>
    <tripinfo id="flow_off_S2N.3" depart="34.00" departLane="S2C_0" departPos="5.10" departSpeed="0.00" departDelay="0.00" arrival="128.00" arrivalLane="C2N_0" arrivalPos="489.60" arrivalSpeed="12.90" duration="94.00" routeLength="994.90" waitingTime="9.00" waitingCount="1" stopTime="0.00" timeLoss="21.09" rerouteNo="0" devices="tripinfo_flow_off_S2N.3 routing_flow_off_S2N.3 emissions_flow_off_S2N.3" vType="car" speedFactor="0.99" vaporized="">
        <emissions CO_abs="1084.80" CO2_abs="221547.01" HC_abs="7.27" PMx_abs="23.13" NOx_abs="77.24" fuel_abs="71822.79" electricity_abs="0.00"/>
    </tripinfo>
    <tripinfo id="flow_off_N2S.2" depart="29.00" departLane="N2C_0" departPos="5.10" departSpeed="0.00" departDelay="0.00" arrival="129.00" arrivalLane="C2S_0" arrivalPos="489.60" arrivalSpeed="12.31" duration="100.00" routeLength="994.90" waitingTime="12.00" waitingCount="1" stopTime="0.00" timeLoss="23.44" rerouteNo="0" devices="tripinfo_flow_off_N2S.2 routing_flow_off_N2S.2 emissions_flow_off_N2S.2" vType="car" speedFactor="0.94" vaporized="">
        <emissions CO_abs="971.91" CO2_abs="220860.39" HC_abs="6.50" PMx_abs="22.01" NOx_abs="76.72" fuel_abs="71600.15" electricity_abs="0.00"/>
    </tripinfo>
    <tripinfo id="flow_off_N2S.4" depart="49.00" departLane="N2C_0" departPos="5.10" departSpeed="0.00" departDelay="0.00" arrival="131.00" arrivalLane="C2S_0" arrivalPos="489.60" arrivalSpeed="12.97" duration="82.00" routeLength="994.90" waitingTime="0.00" waitingCount="0" stopTime="0.00" timeLoss="9.56" rerouteNo="0" devices="tripinfo_flow_off_N2S.4 routing_flow_off_N2S.4 emissions_flow_off_N2S.4" vType="car" speedFactor="0.99" vaporized="">
        <emissions CO_abs="1152.88" CO2_abs="190132.21" HC_abs="7.69" PMx_abs="19.02" NOx_abs="65.61" fuel_abs="61638.24" electricity_abs="0.00"/>
    </tripinfo>
    <tripinfo id="flow_off_N2S.3" depart="36.00" departLane="N2C_0" departPos="2.10" departSpeed="0.00" departDelay="0.00" arrival="133.00" arrivalLane="C2S_0" arrivalPos="489.60" arrivalSpeed="10.85" duration="97.00" routeLength="997.90" waitingTime="0.00" waitingCount="0" stopTime="0.00" timeLoss="14.46" rerouteNo="0" devices="tripinfo_flow_off_N2S.3 routing_flow_off_N2S.3 emissions_flow_off_N2S.3" vType="moto" speedFactor="0.88" vaporized="">
        <emissions CO_abs="3125.70" CO2_abs="128919.12" HC_abs="1535.37" PMx_abs="31.29" NOx_abs="166.07" fuel_abs="41802.74" electricity_abs="0.00"/>
    </tripinfo>
    <tripinfo id="flow_off_N2S.5" depart="52.00" departLane="N2C_0" departPos="5.10" departSpeed="0.00" departDelay="2.00" arrival="134.00" arrivalLane="C2S_1" arrivalPos="489.60" arrivalSpeed="13.52" duration="82.00" routeLength="994.90" waitingTime="0.00" waitingCount="0" stopTime="0.00" timeLoss="13.32" rerouteNo="0" devices="tripinfo_flow_off_N2S.5 routing_flow_off_N2S.5 emissions_flow_off_N2S.5" vType="car" speedFactor="1.05" vaporized="">
        <emissions CO_abs="1387.16" CO2_abs="215829.15" HC_abs="9.24" PMx_abs="20.87" NOx_abs="74.55" fuel_abs="69968.76" electricity_abs="0.00"/>
    </tripinfo>
    <tripinfo id="flow_off_W2E.4" depart="47.00" departLane="W2C_0" departPos="5.10" departSpeed="0.00" departDelay="0.00" arrival="140.00" arrivalLane="C2E_0" arrivalPos="489.60" arrivalSpeed="14.46" duration="93.00" routeLength="994.90" waitingTime="15.00" waitingCount="1" stopTime="0.00" timeLoss="27.14" rerouteNo="0" devices="tripinfo_flow_off_W2E.4 routing_flow_off_W2E.4 emissions_flow_off_W2E.4" vType="car" speedFactor="1.10" vaporized="">
        <emissions CO_abs="1313.59" CO2_abs="230125.07" HC_abs="8.78" PMx_abs="21.82" NOx_abs="80.93" fuel_abs="74603.52" electricity_abs="0.00"/>
    </tripinfo>
    <tripinfo id="flow_off_W2E.5" depart="62.00" departLane="W2C_0" departPos="2.10" departSpeed="0.00" departDelay="0.00" arrival="150.00" arrivalLane="C2E_0" arrivalPos="489.60" arrivalSpeed="12.39" duration="88.00" routeLength="997.90" waitingTime="0.00" waitingCount="0" stopTime="0.00" timeLoss="8.24" rerouteNo="0" devices="tripinfo_flow_off_W2E.5 routing_flow_off_W2E.5 emissions_flow_off_W2E.5" vType="moto" speedFactor="0.91" vaporized="">
        <emissions CO_abs="3274.82" CO2_abs="118982.80" HC_abs="1459.53" PMx_abs="29.80" NOx_abs="158.22" fuel_abs="38580.98" electricity_abs="0.00"/>
    </tripinfo>
    <tripinfo id="flow_off_N2S.6" depart="64.00" departLane="N2C_0" departPos="5.10" departSpeed="0.00" departDelay="0.00" arrival="160.00" arrivalLane="C2S_0" arrivalPos="489.60" arrivalSpeed="12.75" duration="96.00" routeLength="994.90" waitingTime="9.00" waitingCount="1" stopTime="0.00" timeLoss="21.26" rerouteNo="0" devices="tripinfo_flow_off_N2S.6 routing_flow_off_N2S.6 emissions_flow_off_N2S.6" vType="car" speedFactor="0.97" vaporized="">
        <emissions CO_abs="1078.86" CO2_abs="218885.03" HC_abs="7.22" PMx_abs="21.60" NOx_abs="76.07" fuel_abs="70959.67" electricity_abs="0.00"/>
    </tripinfo>
    <tripinfo id="flow_off_S2N.5" depart="74.00" departLane="S2C_0" departPos="2.10" departSpeed="0.00" departDelay="0.00" arrival="162.00" arrivalLane="C2N_0" arrivalPos="489.60" arrivalSpeed="11.34" duration="88.00" routeLength="997.90" waitingTime="0.00" waitingCount="0" stopTime="0.00" timeLoss="8.52" rerouteNo="0" devices="tripinfo_flow_off_S2N.5 routing_flow_off_S2N.5 emissions_flow_off_S2N.5" vType="moto" speedFactor="0.91" vaporized="">
        <emissions CO_abs="3217.23" CO2_abs="114624.96" HC_abs="1370.21" PMx_abs="27.57" NOx_abs="158.51" fuel_abs="37167.74" electricity_abs="0.00"/>
    </tripinfo>
    <tripinfo id="flow_off_N2S.7" depart="84.00" departLane="N2C_0" departPos="5.10" departSpeed="0.00" departDelay="0.00" arrival="167.00" arrivalLane="C2S_0" arrivalPos="489.60" arrivalSpeed="12.14" duration="83.00" routeLength="994.90" waitingTime="0.00" waitingCount="0" stopTime="0.00" timeLoss="6.31" rerouteNo="0" devices="tripinfo_flow_off_N2S.7 routing_flow_off_N2S.7 emissions_flow_off_N2S.7" vType="car" speedFactor="0.93" vaporized="">
        <emissions CO_abs="838.73" CO2_abs="178654.42" HC_abs="5.64" PMx_abs="22.30" NOx_abs="62.35" fuel_abs="57917.65" electricity_abs="0.00"/>
    </tripinfo>
    <tripinfo id="flow_off_E2W.2" depart="85.00" departLane="E2C_0" departPos="5.10" departSpeed="0.00" departDelay="0.00" arrival="172.00" arrivalLane="C2W_0" arrivalPos="489.60" arrivalSpeed="14.85" duration="87.00" routeLength="994.90" waitingTime="8.00" waitingCount="1" stopTime="0.00" timeLoss="19.97" rerouteNo="0" devices="tripinfo_flow_off_E2W.2 routing_flow_off_E2W.2 emissions_flow_off_E2W.2" vType="car" speedFactor="1.08" vaporized="">
        <emissions CO_abs="1307.12" CO2_abs="227571.74" HC_abs="8.75" PMx_abs="24.14" NOx_abs="79.43" fuel_abs="73775.74" electricity_abs="0.00"/>
    </tripinfo>
    <tripinfo id="flow_off_E2W.1" depart="72.00" departLane="E2C_0" departPos="2.10" departSpeed="0.00" departDelay="0.00" arrival="182.00" arrivalLane="C2W_0" arrivalPos="489.60" arrivalSpeed="11.07" duration="110.00" routeLength="997.90" waitingTime="12.00" waitingCount="1" stopTime="0.00" timeLoss="24.99" rerouteNo="0" devices="tripinfo_flow_off_E2W.1 routing_flow_off_E2W.1 emissions_flow_off_E2W.1" vType="moto" speedFactor="0.85" vaporized="">
        <emissions CO_abs="2892.07" CO2_abs="146494.79" HC_abs="1865.66" PMx_abs="38.37" NOx_abs="166.88" fuel_abs="47502.11" electricity_abs="0.00"/>
    </tripinfo>
    <tripinfo id="flow_off_N2S.8" depart="104.00" departLane="N2C_0" departPos="5.10" departSpeed="0.00" departDelay="0.00" arrival="186.00" arrivalLane="C2S_0" arrivalPos="489.60" arrivalSpeed="14.85" duration="82.00" routeLength="994.90" waitingTime="7.00" waitingCount="1" stopTime="0.00" timeLoss="19.48" rerouteNo="0" devices="tripinfo_flow_off_N2S.8 routing_flow_off_N2S.8 emissions_flow_off_N2S.8" vType="car" speedFactor="1.15" vaporized="">
        <emissions CO_abs="1450.67" CO2_abs="224083.18" HC_abs="9.71" PMx_abs="23.37" NOx_abs="78.61" fuel_abs="72644.66" electricity_abs="0.00"/>
    </tripinfo>
    <tripinfo id="flow_off_S2N.6" depart="107.00" departLane="S2C_0" departPos="5.10" departSpeed="0.00" departDelay="0.00" arrival="190.00" arrivalLane="C2N_0" arrivalPos="489.60" arrivalSpeed="14.05" duration="83.00" routeLength="994.90" waitingTime="2.00" waitingCount="1" stopTime="0.00" timeLoss="14.41" rerouteNo="0" devices="tripinfo_flow_off_S2N.6 routing_flow_off_S2N.6 emissions_flow_off_S2N.6" vType="car" speedFactor="1.06" vaporized="">
        <emissions CO_abs="1290.61" CO2_abs="214647.06" HC_abs="8.63" PMx_abs="22.04" NOx_abs="74.58" fuel_abs="69585.56" electricity_abs="0.00"/>
    </tripinfo>
    <tripinfo id="flow_off_E2W.4" depart="118.00" departLane="E2C_0" departPos="5.10" departSpeed="0.00" departDelay="0.00" arrival="205.00" arrivalLane="C2W_0" arrivalPos="489.60" arrivalSpeed="14.14" duration="87.00" routeLength="994.90" waitingTime="8.00" waitingCount="1" stopTime="0.00" timeLoss="19.26" rerouteNo="0" devices="tripinfo_flow_off_E2W.4 routing_flow_off_E2W.4 emissions_flow_off_E2W.4" vType="car" speedFactor="1.06" vaporized="">
        <emissions CO_abs="1282.42" CO2_abs="223808.43" HC_abs="8.57" PMx_abs="22.76" NOx_abs="77.93" fuel_abs="72555.72" electricity_abs="0.00"/>
    </tripinfo>
    <tripinfo id="flow_off_E2W.3" depart="102.00" departLane="E2C_0" departPos="5.10" departSpeed="0.00" departDelay="0.00" arrival="221.00" arrivalLane="C2W_0" arrivalPos="489.60" arrivalSpeed="9.69" duration="119.00" routeLength="994.90" waitingTime="9.00" waitingCount="1" stopTime="0.00" timeLoss="21.17" rerouteNo="0" devices="tripinfo_flow_off_E2W.3 routing_flow_off_E2W.3 emissions_flow_off_E2W.3" vType="car" speedFactor="0.74" vaporized="">
        <emissions CO_abs="720.58" CO2_abs="221433.60" HC_abs="4.80" PMx_abs="19.39" NOx_abs="75.37" fuel_abs="71786.03" electricity_abs="0.00"/>
    </tripinfo>
    <tripinfo id="flow_off_S2N.8" depart="137.00" departLane="S2C_0" departPos="5.10" departSpeed="0.00" departDelay="0.00" arrival="223.00" arrivalLane="C2N_0" arrivalPos="489.60" arrivalSpeed="14.11" duration="86.00" routeLength="994.90" waitingTime="2.00" waitingCount="1" stopTime="0.00" timeLoss="14.76" rerouteNo="0" devices="tripinfo_flow_off_S2N.8 routing_flow_off_S2N.8 emissions_flow_off_S2N.8" vType="car" speedFactor="1.02" vaporized="">
        <emissions CO_abs="1188.24" CO2_abs="215604.14" HC_abs="7.95" PMx_abs="23.09" NOx_abs="74.19" fuel_abs="69895.96" electricity_abs="0.00"/>
    </tripinfo>
    <tripinfo id="flow_off_S2N.7" depart="119.00" departLane="S2C_0" departPos="12.10" departSpeed="0.00" departDelay="0.00" arrival="225.00" arrivalLane="C2N_0" arrivalPos="489.60" arrivalSpeed="13.62" duration="106.00" routeLength="987.90" waitingTime="18.00" waitingCount="1" stopTime="0.00" timeLoss="34.87" rerouteNo="0" devices="tripinfo_flow_off_S2N.7 routing_flow_off_S2N.7 emissions_flow_off_S2N.7" vType="bus" speedFactor="1.00" vaporized="">
        <emissions CO_abs="266.60" CO2_abs="1271998.75" HC_abs="23.17" PMx_abs="162.93" NOx_abs="524.42" fuel_abs="408777.70" electricity_abs="0.00"/>
    </tripinfo>
    <tripinfo id="flow_off_N2S.9" depart="122.00" departLane="N2C_0" departPos="12.10" departSpeed="0.00" departDelay="0.00" arrival="226.00" arrivalLane="C2S_0" arrivalPos="489.60" arrivalSpeed="13.37" duration="104.00" routeLength="987.90" waitingTime="15.00" waitingCount="1" stopTime="0.00" timeLoss="32.09" rerouteNo="0" devices="tripinfo_flow_off_N2S.9 routing_flow_off_N2S.9 emissions_flow_off_N2S.9" vType="bus" speedFactor="1.00" vaporized="">
        <emissions CO_abs="256.25" CO2_abs="1245757.44" HC_abs="22.33" PMx_abs="154.54" NOx_abs="499.70" fuel_abs="400345.00" electricity_abs="0.00"/>
    </tripinfo>
    <tripinfo id="flow_off_N2S.10" depart="145.00" departLane="N2C_0" departPos="15.10" departSpeed="0.00" departDelay="0.00" arrival="228.00" arrivalLane="C2S_0" arrivalPos="489.60" arrivalSpeed="13.09" duration="83.00" routeLength="984.90" waitingTime="0.00" waitingCount="0" stopTime="0.00" timeLoss="10.09" rerouteNo="0" devices="tripinfo_flow_off_N2S.10 routing_flow_off_N2S.10 emissions_flow_off_N2S.10" vType="truck" speedFactor="0.98" vaporized="">
        <emissions CO_abs="113.98" CO2_abs="427560.74" HC_abs="10.08" PMx_abs="136.12" NOx_abs="236.75" fuel_abs="137417.32" electricity_abs="0.00"/>
    </tripinfo>
    <tripinfo id="flow_off_N2S.11" depart="156.00" departLane="N2C_0" departPos="5.10" departSpeed="0.00" departDelay="0.00" arrival="241.00" arrivalLane="C2S_0" arrivalPos="489.60" arrivalSpeed="12.59" duration="85.00" routeLength="994.90" waitingTime="0.00" waitingCount="0" stopTime="0.00" timeLoss="7.29" rerouteNo="0" devices="tripinfo_flow_off_N2S.11 routing_flow_off_N2S.11 emissions_flow_off_N2S.11" vType="car" speedFactor="0.92" vaporized="">
        <emissions CO_abs="889.09" CO2_abs="190328.27" HC_abs="5.97" PMx_abs="23.19" NOx_abs="66.48" fuel_abs="61702.16" electricity_abs="0.00"/>
    </tripinfo>
    <tripinfo id="flow_off_S2N.9" depart="164.00" departLane="S2C_0" departPos="2.10" departSpeed="0.00" departDelay="0.00" arrival="247.00" arrivalLane="C2N_0" arrivalPos="489.60" arrivalSpeed="12.76" duration="83.00" routeLength="997.90" waitingTime="0.00" waitingCount="0" stopTime="0.00" timeLoss="7.19" rerouteNo="0" devices="tripinfo_flow_off_S2N.9 routing_flow_off_S2N.9 emissions_flow_off_S2N.9" vType="moto" speedFactor="0.96" vaporized="">
        <emissions CO_abs="3628.10" CO2_abs="115560.89" HC_abs="1393.56" PMx_abs="28.26" NOx_abs="162.64" fuel_abs="37471.32" electricity_abs="0.00"/>
    </tripinfo>
    <tripinfo id="flow_off_W2E.7" depart="145.00" departLane="W2C_0" departPos="5.10" departSpeed="0.00" departDelay="0.00" arrival="251.00" arrivalLane="C2E_0" arrivalPos="489.60" arrivalSpeed="14.37" duration="106.00" routeLength="994.90" waitingTime="29.00" waitingCount="1" stopTime="0.00" timeLoss="41.66" rerouteNo="0" devices="tripinfo_flow_off_W2E.7 routing_flow_off_W2E.7 emissions_flow_off_W2E.7" vType="car" speedFactor="1.12" vaporized="">
        <emissions CO_abs="1322.45" CO2_abs="253788.22" HC_abs="8.86" PMx_abs="23.27" NOx_abs="90.31" fuel_abs="82274.98" electricity_abs="0.00"/>
    </tripinfo>
    <tripinfo id="flow_off_W2E.8" depart="153.00" departLane="W2C_0" departPos="5.10" departSpeed="0.00" departDelay="0.00" arrival="251.00" arrivalLane="C2E_1" arrivalPos="489.60" arrivalSpeed="16.04" duration="98.00" routeLength="994.90" waitingTime="25.00" waitingCount="1" stopTime="0.00" timeLoss="38.87" rerouteNo="0" devices="tripinfo_flow_off_W2E.8 routing_flow_off_W2E.8 emissions_flow_off_W2E.8" vType="car" speedFactor="1.23" vaporized="">
        <emissions CO_abs="1582.79" CO2_abs="258362.69" HC_abs="10.61" PMx_abs="23.95" NOx_abs="92.71" fuel_abs="83757.81" electricity_abs="0.00"/>
    </tripinfo>
    <tripinfo id="flow_off_E2W.6" depart="145.00" departLane="E2C_0" departPos="5.10" departSpeed="0.00" departDelay="0.00" arrival="252.00" arrivalLane="C2W_0" arrivalPos="489.60" arrivalSpeed="14.16" duration="107.00" routeLength="994.90" waitingTime="28.00" waitingCount="1" stopTime="0.00" timeLoss="41.40" rerouteNo="0" devices="tripinfo_flow_off_E2W.6 routing_flow_off_E2W.6 emissions_flow_off_E2W.6" vType="car" speedFactor="1.09" vaporized="">
        <emissions CO_abs="1375.50" CO2_abs="260387.30" HC_abs="9.20" PMx_abs="22.80" NOx_abs="93.03" fuel_abs="84414.25" electricity_abs="0.00"/>
    </tripinfo>
    <tripinfo id="flow_off_E2W.5" depart="142.00" departLane="E2C_0" departPos="5.10" departSpeed="0.00" departDelay="0.00" arrival="255.00" arrivalLane="C2W_0" arrivalPos="489.60" arrivalSpeed="13.70" duration="113.00" routeLength="994.90" waitingTime="28.00" waitingCount="1" stopTime="0.00" timeLoss="41.38" rerouteNo="0" devices="tripinfo_flow_off_E2W.5 routing_flow_off_E2W.5 emissions_flow_off_E2W.5" vType="car" speedFactor="1.00" vaporized="">
        <emissions CO_abs="1153.22" CO2_abs="253482.60" HC_abs="7.71" PMx_abs="22.29" NOx_abs="89.48" fuel_abs="82175.97" electricity_abs="0.00"/>
    </tripinfo>
    <tripinfo id="flow_off_E2W.8" depart="173.00" departLane="E2C_0" departPos="5.10" departSpeed="0.00" departDelay="0.00" arrival="256.00" arrivalLane="C2W_1" arrivalPos="489.60" arrivalSpeed="14.05" duration="83.00" routeLength="994.90" waitingTime="0.00" waitingCount="0" stopTime="0.00" timeLoss="13.14" rerouteNo="0" devices="tripinfo_flow_off_E2W.8 routing_flow_off_E2W.8 emissions_flow_off_E2W.8" vType="car" speedFactor="1.03" vaporized="">
        <emissions CO_abs="1298.90" CO2_abs="211262.11" HC_abs="8.66" PMx_abs="20.65" NOx_abs="72.62" fuel_abs="68488.17" electricity_abs="0.00"/>
    </tripinfo>
    <tripinfo id="flow_off_E2W.7" depart="167.00" departLane="E2C_0" departPos="2.10" departSpeed="0.00" departDelay="0.00" arrival="257.00" arrivalLane="C2W_0" arrivalPos="489.60" arrivalSpeed="14.60" duration="90.00" routeLength="997.90" waitingTime="7.00" waitingCount="1" stopTime="0.00" timeLoss="22.19" rerouteNo="0" devices="tripinfo_flow_off_E2W.7 routing_flow_off_E2W.7 emissions_flow_off_E2W.7" vType="moto" speedFactor="1.07" vaporized="">
        <emissions CO_abs="4556.52" CO2_abs="141036.97" HC_abs="1674.48" PMx_abs="33.51" NOx_abs="198.71" fuel_abs="45731.92" electricity_abs="0.00"/>
    </tripinfo>
    <tripinfo id="flow_off_W2E.6" depart="140.00" departLane="W2C_0" departPos="5.10" departSpeed="0.00" departDelay="0.00" arrival="258.00" arrivalLane="C2E_0" arrivalPos="489.60" arrivalSpeed="12.60" duration="118.00" routeLength="994.90" waitingTime="28.00" waitingCount="1" stopTime="0.00" timeLoss="39.71" rerouteNo="0" devices="tripinfo_flow_off_W2E.6 routing_flow_off_W2E.6 emissions_flow_off_W2E.6" vType="car" speedFactor="0.92" vaporized="">
        <emissions CO_abs="1092.86" CO2_abs="256782.45" HC_abs="7.29" PMx_abs="21.34" NOx_abs="89.84" fuel_abs="83245.73" electricity_abs="0.00"/>
    </tripinfo>
    <tripinfo id="flow_off_W2E.10" depart="191.00" departLane="W2C_0" departPos="5.10" departSpeed="0.00" departDelay="0.00" arrival="262.00" arrivalLane="C2E_0" arrivalPos="489.60" arrivalSpeed="15.45" duration="71.00" routeLength="994.90" waitingTime="0.00" waitingCount="0" stopTime="0.00" timeLoss="5.95" rerouteNo="0" devices="tripinfo_flow_off_W2E.10 routing_flow_off_W2E.10 emissions_flow_off_W2E.10" vType="car" speedFactor="1.12" vaporized="">
        <emissions CO_abs="1287.91" CO2_abs="191213.44" HC_abs="8.66" PMx_abs="24.05" NOx_abs="68.04" fuel_abs="61988.89" electricity_abs="0.00"/>
    </tripinfo>
    <tripinfo id="flow_off_E2W.9" depart="185.00" departLane="E2C_0" departPos="12.10" departSpeed="0.00" departDelay="0.00" arrival="265.00" arrivalLane="C2W_0" arrivalPos="489.60" arrivalSpeed="13.58" duration="80.00" routeLength="987.90" waitingTime="0.00" waitingCount="0" stopTime="0.00" timeLoss="8.54" rerouteNo="0" devices="tripinfo_flow_off_E2W.9 routing_flow_off_E2W.9 emissions_flow_off_E2W.9" vType="bus" speedFactor="1.00" vaporized="">
        <emissions CO_abs="185.19" CO2_abs="1005083.93" HC_abs="17.79" PMx_abs="118.35" NOx_abs="387.79" fuel_abs="322998.81" electricity_abs="0.00"/>
    </tripinfo>
    <tripinfo id="flow_off_W2E.9" depart="185.00" departLane="W2C_0" departPos="2.10" departSpeed="0.00" departDelay="0.00" arrival="270.00" arrivalLane="C2E_0" arrivalPos="489.60" arrivalSpeed="11.48" duration="85.00" routeLength="997.90" waitingTime="0.00" waitingCount="0" stopTime="0.00" timeLoss="8.53" rerouteNo="0" devices="tripinfo_flow_off_W2E.9 routing_flow_off_W2E.9 emissions_flow_off_W2E.9" vType="moto" speedFactor="0.94" vaporized="">
        <emissions CO_abs="3343.20" CO2_abs="112016.67" HC_abs="1338.08" PMx_abs="26.89" NOx_abs="158.10" fuel_abs="36321.99" electricity_abs="0.00"/>
    </tripinfo>
    <tripinfo id="flow_off_E2W.11" depart="203.00" departLane="E2C_0" departPos="2.10" departSpeed="0.00" departDelay="0.00" arrival="272.00" arrivalLane="C2W_1" arrivalPos="489.60" arrivalSpeed="15.37" duration="69.00" routeLength="997.90" waitingTime="0.00" waitingCount="0" stopTime="0.00" timeLoss="6.39" rerouteNo="0" devices="tripinfo_flow_off_E2W.11 routing_flow_off_E2W.11 emissions_flow_off_E2W.11" vType="moto" speedFactor="1.16" vaporized="">
        <emissions CO_abs="5363.50" CO2_abs="116410.90" HC_abs="1331.84" PMx_abs="26.43" NOx_abs="191.00" fuel_abs="37746.67" electricity_abs="0.00"/>
    </tripinfo>
    <tripinfo id="flow_off_E2W.10" depart="189.00" departLane="E2C_0" departPos="5.10" departSpeed="0.00" departDelay="1.00" arrival="273.00" arrivalLane="C2W_0" arrivalPos="489.60" arrivalSpeed="11.84" duration="84.00" routeLength="994.90" waitingTime="0.00" waitingCount="0" stopTime="0.00" timeLoss="7.26" rerouteNo="0" devices="tripinfo_flow_off_E2W.10 routing_flow_off_E2W.10 emissions_flow_off_E2W.10" vType="car" speedFactor="0.94" vaporized="">
        <emissions CO_abs="926.83" CO2_abs="182330.55" HC_abs="6.21" PMx_abs="21.34" NOx_abs="63.56" fuel_abs="59109.30" electricity_abs="0.00"/>
    </tripinfo>
    <tripinfo id="flow_off_S2N.10" depart="169.00" departLane="S2C_0" departPos="2.10" departSpeed="0.00" departDelay="0.00" arrival="286.00" arrivalLane="C2N_0" arrivalPos="489.60" arrivalSpeed="13.20" duration="117.00" routeLength="997.90" waitingTime="35.00" waitingCount="1" stopTime="0.00" timeLoss="46.08" rerouteNo="0" devices="tripinfo_flow_off_S2N.10 routing_flow_off_S2N.10 emissions_flow_off_S2N.10" vType="moto" speedFactor="1.02" vaporized="">
        <emissions CO_abs="3961.36" CO2_abs="171667.94" HC_abs="2264.13" PMx_abs="46.44" NOx_abs="192.11" fuel_abs="55664.95" electricity_abs="0.00"/>
    </tripinfo>