<?xml version="1.0" encoding="UTF-8"?>

<!-- generated on 2026-05-03T09:59:32.574473+07:00 by Eclipse SUMO sumo 1.26.0
<sumoConfiguration xmlns:xsi="http://www.w3.org/2001/XMLSchema-instance" xsi:noNamespaceSchemaLocation="http://sumo.dlr.de/xsd/sumoConfiguration.xsd">

    <input>
        <net-file value="sumo/network.net.xml"/>
        <route-files value="sumo/routes.rou.xml"/>
        <additional-files value="sumo/tls_webster.add.xml,sumo/traffic.add.xml"/>
    </input>

    <output>
        <tripinfo-output value="C:\Users\DELL\Downloads\project\runs\exp_20260503_092403\evaluation\tripinfo_webster.xml"/>
        <tripinfo-output.write-unfinished value="true"/>
    </output>

    <time>
        <begin value="0"/>
        <end value="7200"/>
    </time>

    <processing>
        <time-to-teleport value="300"/>
        <waiting-time-memory value="10000"/>
    </processing>

    <report>
        <verbose value="false"/>
        <no-step-log value="true"/>
    </report>

    <emissions>
        <device.emissions.probability value="1.0"/>
    </emissions>

    <traci_server>
        <remote-port value="51588"/>
    </traci_server>

    <random_number>
        <seed value="44"/>
    </random_number>

</sumoConfiguration>
-->

<tripinfos xmlns:xsi="http://www.w3.org/2001/XMLSchema-instance" xsi:noNamespaceSchemaLocation="http://sumo.dlr.de/xsd/tripinfo_file.xsd">
    <tripinfo id="flow_off_W2E.0" depart="0.00" departLane="W2C_0" departPos="2.10" departSpeed="0.00" departDelay="0.00" arrival="84.00" arrivalLane="C2E_0" arrivalPos="489.60" arrivalSpeed="11.73" duration="84.00" routeLength="997.90" waitingTime="0.00" waitingCount="0" stopTime="0.00" timeLoss="7.60" rerouteNo="0" devices="tripinfo_flow_off_W2E.0 routing_flow_off_W2E.0 emissions_flow_off_W2E.0" vType="moto" speedFactor="0.95" vaporized="">
        <emissions CO_abs="3498.85" CO2_abs="114122.64" HC_abs="1374.67" PMx_abs="27.78" NOx_abs="160.43" fuel_abs="37004.93" electricity_abs="0.00"/>
    </tripinfo>
    <tripinfo id="flow_off_N2S.0" depart="36.00" departLane="N2C_0" departPos="2.10" departSpeed="0.00" departDelay="0.00" arrival="111.00" arrivalLane="C2S_0" arrivalPos="489.60" arrivalSpeed="16.36" duration="75.00" routeLength="997.90" waitingTime="3.00" waitingCount="1" stopTime="0.00" timeLoss="15.23" rerouteNo="0" devices="tripinfo_flow_off_N2S.0 routing_flow_off_N2S.0 emissions_flow_off_N2S.0" vType="moto" speedFactor="1.22" vaporized="">
        <emissions CO_abs="6109.96" CO2_abs="136855.58" HC_abs="1545.78" PMx_abs="30.55" NOx_abs="219.77" fuel_abs="44375.84" electricity_abs="0.00"/>
    </tripinfo>
    <tripinfo id="flow_off_N2S.2" depart="45.00" departLane="N2C_0" departPos="5.10" departSpeed="0.00" departDelay="1.00" arrival="120.00" arrivalLane="C2S_0" arrivalPos="489.60" arrivalSpeed="14.58" duration="75.00" routeLength="994.90" waitingTime="0.00" waitingCount="0" stopTime="0.00" timeLoss="6.49" rerouteNo="0" devices="tripinfo_flow_off_N2S.2 routing_flow_off_N2S.2 emissions_flow_off_N2S.2" vType="car" speedFactor="1.06" vaporized="">
        <emissions CO_abs="1178.02" CO2_abs="185675.69" HC_abs="7.90" PMx_abs="22.16" NOx_abs="65.59" fuel_abs="60193.62" electricity_abs="0.00"/>
    </tripinfo>
    <tripinfo id="flow_off_S2N.1" depart="12.00" departLane="S2C_0" departPos="5.10" departSpeed="0.00" departDelay="2.00" arrival="122.00" arrivalLane="C2N_0" arrivalPos="489.60" arrivalSpeed="11.65" duration="110.00" routeLength="994.90" waitingTime="18.00" waitingCount="1" stopTime="0.00" timeLoss="30.56" rerouteNo="0" devices="tripinfo_flow_off_S2N.1 routing_flow_off_S2N.1 emissions_flow_off_S2N.1" vType="car" speedFactor="0.91" vaporized="">
        <emissions CO_abs="975.57" CO2_abs="235453.06" HC_abs="6.52" PMx_abs="21.49" NOx_abs="81.87" fuel_abs="76331.02" electricity_abs="0.00"/>
    </tripinfo>
    <tripinfo id="flow_off_S2N.0" depart="9.00" departLane="S2C_0" departPos="5.10" departSpeed="0.00" departDelay="0.00" arrival="126.00" arrivalLane="C2N_0" arrivalPos="489.60" arrivalSpeed="10.82" duration="117.00" routeLength="994.90" waitingTime="19.00" waitingCount="1" stopTime="0.00" timeLoss="31.44" rerouteNo="0" devices="tripinfo_flow_off_S2N.0 routing_flow_off_S2N.0 emissions_flow_off_S2N.0" vType="car" speedFactor="0.85" vaporized="">
        <emissions CO_abs="876.92" CO2_abs="232342.68" HC_abs="5.85" PMx_abs="19.91" NOx_abs="80.09" fuel_abs="75322.65" electricity_abs="0.00"/>
    </tripinfo>
    <tripinfo id="flow_off_N2S.1" depart="42.00" departLane="N2C_0" departPos="5.10" departSpeed="0.00" departDelay="0.00" arrival="126.00" arrivalLane="C2S_0" arrivalPos="489.60" arrivalSpeed="11.91" duration="84.00" routeLength="994.90" waitingTime="0.00" waitingCount="0" stopTime="0.00" timeLoss="7.79" rerouteNo="0" devices="tripinfo_flow_off_N2S.1 routing_flow_off_N2S.1 emissions_flow_off_N2S.1" vType="car" speedFactor="0.94" vaporized="">
        <emissions CO_abs="908.34" CO2_abs="177007.51" HC_abs="6.08" PMx_abs="20.13" NOx_abs="61.51" fuel_abs="57383.60" electricity_abs="0.00"/>
    </tripinfo>
    <tripinfo id="flow_off_N2S.3" depart="52.00" departLane="N2C_0" departPos="12.10" departSpeed="0.00" departDelay="0.00" arrival="132.00" arrivalLane="C2S_0" arrivalPos="489.60" arrivalSpeed="13.35" duration="80.00" routeLength="987.90" waitingTime="0.00" waitingCount="0" stopTime="0.00" timeLoss="7.99" rerouteNo="0" devices="tripinfo_flow_off_N2S.3 routing_flow_off_N2S.3 emissions_flow_off_N2S.3" vType="bus" speedFactor="1.00" vaporized="">
        <emissions CO_abs="200.14" CO2_abs="1043941.08" HC_abs="19.32" PMx_abs="135.15" NOx_abs="434.60" fuel_abs="335483.82" electricity_abs="0.00"/>
    </tripinfo>
    <tripinfo id="flow_off_S2N.2" depart="53.00" departLane="S2C_0" departPos="5.10" departSpeed="0.00" departDelay="0.00" arrival="135.00" arrivalLane="C2N_0" arrivalPos="489.60" arrivalSpeed="12.15" duration="82.00" routeLength="994.90" waitingTime="0.00" waitingCount="0" stopTime="0.00" timeLoss="6.84" rerouteNo="0" devices="tripinfo_flow_off_S2N.2 routing_flow_off_S2N.2 emissions_flow_off_S2N.2" vType="car" speedFactor="0.96" vaporized="">
        <emissions CO_abs="952.66" CO2_abs="177903.82" HC_abs="6.38" PMx_abs="20.44" NOx_abs="61.97" fuel_abs="57674.15" electricity_abs="0.00"/>
    </tripinfo>
    <tripinfo id="flow_off_N2S.4" depart="58.00" departLane="N2C_0" departPos="5.10" departSpeed="0.00" departDelay="0.00" arrival="140.00" arrivalLane="C2S_0" arrivalPos="489.60" arrivalSpeed="12.99" duration="82.00" routeLength="994.90" waitingTime="0.00" waitingCount="0" stopTime="0.00" timeLoss="7.09" rerouteNo="0" devices="tripinfo_flow_off_N2S.4 routing_flow_off_N2S.4 emissions_flow_off_N2S.4" vType="car" speedFactor="0.96" vaporized="">
        <emissions CO_abs="919.53" CO2_abs="177713.88" HC_abs="6.17" PMx_abs="21.12" NOx_abs="61.95" fuel_abs="57612.63" electricity_abs="0.00"/>
    </tripinfo>
    <tripinfo id="flow_off_S2N.3" depart="64.00" departLane="S2C_0" departPos="12.10" departSpeed="0.00" departDelay="0.00" arrival="143.00" arrivalLane="C2N_0" arrivalPos="489.60" arrivalSpeed="13.83" duration="79.00" routeLength="987.90" waitingTime="0.00" waitingCount="0" stopTime="0.00" timeLoss="7.87" rerouteNo="0" devices="tripinfo_flow_off_S2N.3 routing_flow_off_S2N.3 emissions_flow_off_S2N.3" vType="bus" speedFactor="1.00" vaporized="">
        <emissions CO_abs="190.13" CO2_abs="1020671.14" HC_abs="18.34" PMx_abs="124.17" NOx_abs="404.18" fuel_abs="328007.15" electricity_abs="0.00"/>
    </tripinfo>
    <tripinfo id="flow_off_W2E.3" depart="52.00" departLane="W2C_0" departPos="5.10" departSpeed="0.00" departDelay="0.00" arrival="156.00" arrivalLane="C2E_0" arrivalPos="489.60" arrivalSpeed="13.96" duration="104.00" routeLength="994.90" waitingTime="20.00" waitingCount="1" stopTime="0.00" timeLoss="32.32" rerouteNo="0" devices="tripinfo_flow_off_W2E.3 routing_flow_off_W2E.3 emissions_flow_off_W2E.3" vType="car" speedFactor="1.01" vaporized="">
        <emissions CO_abs="1173.87" CO2_abs="244611.36" HC_abs="7.86" PMx_abs="23.37" NOx_abs="86.02" fuel_abs="79299.99" electricity_abs="0.00"/>
    </tripinfo>
    <tripinfo id="flow_off_E2W.0" depart="34.00" departLane="E2C_0" departPos="12.10" departSpeed="0.00" departDelay="0.00" arrival="159.00" arrivalLane="C2W_0" arrivalPos="489.60" arrivalSpeed="13.38" duration="125.00" routeLength="987.90" waitingTime="36.00" waitingCount="1" stopTime="0.00" timeLoss="53.00" rerouteNo="0" devices="tripinfo_flow_off_E2W.0 routing_flow_off_E2W.0 emissions_flow_off_E2W.0" vType="bus" speedFactor="1.00" vaporized="">
        <emissions CO_abs="303.77" CO2_abs="1319928.16" HC_abs="25.48" PMx_abs="189.68" NOx_abs="602.18" fuel_abs="424180.69" electricity_abs="0.00"/>
    </tripinfo>
    <tripinfo id="flow_off_W2E.4" depart="60.00" departLane="W2C_0" departPos="5.10" departSpeed="0.00" departDelay="0.00" arrival="162.00" arrivalLane="C2E_0" arrivalPos="489.60" arrivalSpeed="12.06" duration="102.00" routeLength="994.90" waitingTime="9.00" waitingCount="1" stopTime="0.00" timeLoss="22.74" rerouteNo="0" devices="tripinfo_flow_off_W2E.4 routing_flow_off_W2E.4 emissions_flow_off_W2E.4" vType="car" speedFactor="0.91" vaporized="">
        <emissions CO_abs="970.04" CO2_abs="219124.53" HC_abs="6.48" PMx_abs="20.99" NOx_abs="75.53" fuel_abs="71037.42" electricity_abs="0.00"/>
    </tripinfo>
    <tripinfo id="flow_off_W2E.1" depart="32.00" departLane="W2C_0" departPos="5.10" departSpeed="0.00" departDelay="0.00" arrival="164.00" arrivalLane="C2E_0" arrivalPos="489.60" arrivalSpeed="10.80" duration="132.00" routeLength="994.90" waitingTime="33.00" waitingCount="1" stopTime="0.00" timeLoss="44.12" rerouteNo="0" devices="tripinfo_flow_off_W2E.1 routing_flow_off_W2E.1 emissions_flow_off_W2E.1" vType="car" speedFactor="0.82" vaporized="">
        <emissions CO_abs="825.96" CO2_abs="254668.03" HC_abs="5.51" PMx_abs="20.46" NOx_abs="89.48" fuel_abs="82560.44" electricity_abs="0.00"/>
    </tripinfo>
    <tripinfo id="flow_off_E2W.1" depart="91.00" departLane="E2C_0" departPos="12.10" departSpeed="0.00" departDelay="0.00" arrival="170.00" arrivalLane="C2W_0" arrivalPos="489.60" arrivalSpeed="13.35" duration="79.00" routeLength="987.90" waitingTime="0.00" waitingCount="0" stopTime="0.00" timeLoss="7.75" rerouteNo="0" devices="tripinfo_flow_off_E2W.1 routing_flow_off_E2W.1 emissions_flow_off_E2W.1" vType="bus" speedFactor="1.00" vaporized="">
        <emissions CO_abs="188.28" CO2_abs="1014620.83" HC_abs="18.15" PMx_abs="122.55" NOx_abs="399.58" fuel_abs="326062.94" electricity_abs="0.00"/>
    </tripinfo>
    <tripinfo id="flow_off_W2E.5" depart="90.00" departLane="W2C_0" departPos="5.10" departSpeed="0.00" departDelay="0.00" arrival="171.00" arrivalLane="C2E_1" arrivalPos="489.60" arrivalSpeed="13.22" duration="81.00" routeLength="994.90" waitingTime="0.00" waitingCount="0" stopTime="0.00" timeLoss="6.21" rerouteNo="0" devices="tripinfo_flow_off_W2E.5 routing_flow_off_W2E.5 emissions_flow_off_W2E.5" vType="car" speedFactor="0.96" vaporized="">
        <emissions CO_abs="993.03" CO2_abs="185358.60" HC_abs="6.66" PMx_abs="21.77" NOx_abs="64.68" fuel_abs="60090.92" electricity_abs="0.00"/>
    </tripinfo>
    <tripinfo id="flow_off_W2E.2" depart="39.00" departLane="W2C_0" departPos="2.10" departSpeed="0.00" departDelay="0.00" arrival="172.00" arrivalLane="C2E_0" arrivalPos="489.60" arrivalSpeed="9.04" duration="133.00" routeLength="997.90" waitingTime="22.00" waitingCount="1" stopTime="0.00" timeLoss="37.30" rerouteNo="0" devices="tripinfo_flow_off_W2E.2 routing_flow_off_W2E.2 emissions_flow_off_W2E.2" vType="moto" speedFactor="0.75" vaporized="">
        <emissions CO_abs="2267.01" CO2_abs="165358.51" HC_abs="2195.38" PMx_abs="45.67" NOx_abs="159.71" fuel_abs="53619.16" electricity_abs="0.00"/>
    </tripinfo>
    <tripinfo id="flow_off_W2E.6" depart="101.00" departLane="W2C_0" departPos="5.10" departSpeed="0.00" departDelay="0.00" arrival="181.00" arrivalLane="C2E_0" arrivalPos="489.60" arrivalSpeed="13.52" duration="80.00" routeLength="994.90" waitingTime="0.00" waitingCount="0" stopTime="0.00" timeLoss="6.55" rerouteNo="0" devices="tripinfo_flow_off_W2E.6 routing_flow_off_W2E.6 emissions_flow_off_W2E.6" vType="car" speedFactor="0.98" vaporized="">
        <emissions CO_abs="999.74" CO2_abs="183201.89" HC_abs="6.70" PMx_abs="21.71" NOx_abs="64.03" fuel_abs="59391.74" electricity_abs="0.00"/>
    </tripinfo>
    <tripinfo id="flow_off_E2W.2" depart="104.00" departLane="E2C_0" departPos="5.10" departSpeed="0.00" departDelay="0.00" arrival="191.00" arrivalLane="C2W_0" arrivalPos="489.60" arrivalSpeed="12.14" duration="87.00" routeLength="994.90" waitingTime="0.00" waitingCount="0" stopTime="0.00" timeLoss="6.39" rerouteNo="0" devices="tripinfo_flow_off_E2W.2 routing_flow_off_E2W.2 emissions_flow_off_E2W.2" vType="car" speedFactor="0.89" vaporized="">
        <emissions CO_abs="846.25" CO2_abs="184607.85" HC_abs="5.67" PMx_abs="21.64" NOx_abs="64.13" fuel_abs="59847.64" electricity_abs="0.00"/>
    </tripinfo>
    <tripinfo id="flow_off_S2N.4" depart="86.00" departLane="S2C_0" departPos="2.10" departSpeed="0.00" departDelay="0.00" arrival="194.00" arrivalLane="C2N_0" arrivalPos="489.60" arrivalSpeed="14.04" duration="108.00" routeLength="997.90" waitingTime="27.00" waitingCount="1" stopTime="0.00" timeLoss="37.70" rerouteNo="0" devices="tripinfo_flow_off_S2N.4 routing_flow_off_S2N.4 emissions_flow_off_S2N.4" vType="moto" speedFactor="1.03" vaporized="">
        <emissions CO_abs="4509.71" CO2_abs="171408.83" HC_abs="2192.69" PMx_abs="44.67" NOx_abs="208.67" fuel_abs="55580.73" electricity_abs="0.00"/>
    </tripinfo>
    <tripinfo id="flow_off_N2S.5" depart="89.00" departLane="N2C_0" departPos="5.10" departSpeed="0.00" departDelay="0.00" arrival="196.00" arrivalLane="C2S_0" arrivalPos="489.60" arrivalSpeed="13.35" duration="107.00" routeLength="994.90" waitingTime="20.00" waitingCount="1" stopTime="0.00" timeLoss="33.47" rerouteNo="0" devices="tripinfo_flow_off_N2S.5 routing_flow_off_N2S.5 emissions_flow_off_N2S.5" vType="car" speedFactor="0.98" vaporized="">
        <emissions CO_abs="1164.86" CO2_abs="241151.40" HC_abs="7.77" PMx_abs="20.98" NOx_abs="84.45" fuel_abs="78178.24" electricity_abs="0.00"/>
    </tripinfo>
    <tripinfo id="flow_off_S2N.6" depart="135.00" departLane="S2C_0" departPos="15.10" departSpeed="0.00" departDelay="3.00" arrival="213.00" arrivalLane="C2N_1" arrivalPos="489.60" arrivalSpeed="14.35" duration="78.00" routeLength="984.90" waitingTime="0.00" waitingCount="0" stopTime="0.00" timeLoss="9.81" rerouteNo="0" devices="tripinfo_flow_off_S2N.6 routing_flow_off_S2N.6 emissions_flow_off_S2N.6" vType="truck" speedFactor="1.05" vaporized="">
        <emissions CO_abs="107.75" CO2_abs="437583.72" HC_abs="9.72" PMx_abs="126.55" NOx_abs="230.68" fuel_abs="140639.35" electricity_abs="0.00"/>
    </tripinfo>
    <tripinfo id="flow_off_S2N.5" depart="130.00" departLane="S2C_0" departPos="5.10" departSpeed="0.00" departDelay="0.00" arrival="214.00" arrivalLane="C2N_0" arrivalPos="489.60" arrivalSpeed="12.61" duration="84.00" routeLength="994.90" waitingTime="0.00" waitingCount="0" stopTime="0.00" timeLoss="6.77" rerouteNo="0" devices="tripinfo_flow_off_S2N.5 routing_flow_off_S2N.5 emissions_flow_off_S2N.5" vType="car" speedFactor="0.94" vaporized="">
        <emissions CO_abs="921.50" CO2_abs="180751.87" HC_abs="6.18" PMx_abs="21.07" NOx_abs="62.92" fuel_abs="58597.50" electricity_abs="0.00"/>
    </tripinfo>
    <tripinfo id="flow_off_E2W.3" depart="149.00" departLane="E2C_0" departPos="2.10" departSpeed="0.00" departDelay="0.00" arrival="233.00" arrivalLane="C2W_0" arrivalPos="489.60" arrivalSpeed="12.03" duration="84.00" routeLength="997.90" waitingTime="0.00" waitingCount="0" stopTime="0.00" timeLoss="10.60" rerouteNo="0" devices="tripinfo_flow_off_E2W.3 routing_flow_off_E2W.3 emissions_flow_off_E2W.3" vType="moto" speedFactor="0.98" vaporized="">
        <emissions CO_abs="3727.12" CO2_abs="122079.89" HC_abs="1429.44" PMx_abs="28.97" NOx_abs="171.28" fuel_abs="39585.01" electricity_abs="0.00"/>
    </tripinfo>
    <tripinfo id="flow_off_E2W.4" depart="157.00" departLane="E2C_0" departPos="2.10" departSpeed="0.00" departDelay="0.00" arrival="233.00" arrivalLane="C2W_1" arrivalPos="489.60" arrivalSpeed="14.39" duration="76.00" routeLength="997.90" waitingTime="0.00" waitingCount="0" stopTime="0.00" timeLoss="7.03" rerouteNo="0" devices="tripinfo_flow_off_E2W.4 routing_flow_off_E2W.4 emissions_flow_off_E2W.4" vType="moto" speedFactor="1.04" vaporized="">
        <emissions CO_abs="4296.51" CO2_abs="118035.66" HC_abs="1410.58" PMx_abs="28.69" NOx_abs="172.91" fuel_abs="38273.78" electricity_abs="0.00"/>
    </tripinfo>
    <tripinfo id="flow_off_W2E.7" depart="163.00" departLane="W2C_0" departPos="2.10" departSpeed="0.00" departDelay="0.00" arrival="237.00" arrivalLane="C2E_0" arrivalPos="489.60" arrivalSpeed="14.34" duration="74.00" routeLength="997.90" waitingTime="0.00" waitingCount="0" stopTime="0.00" timeLoss="7.13" rerouteNo="0" devices="tripinfo_flow_off_W2E.7 routing_flow_off_W2E.7 emissions_flow_off_W2E.7" vType="moto" speedFactor="1.09" vaporized="">
        <emissions CO_abs="4693.88" CO2_abs="116549.50" HC_abs="1359.55" PMx_abs="27.00" NOx_abs="183.35" fuel_abs="37791.67" electricity_abs="0.00"/>
    </tripinfo>
    <tripinfo id="flow_off_W2E.8" depart="176.00" departLane="W2C_0" departPos="5.10" departSpeed="0.00" departDelay="0.00" arrival="247.00" arrivalLane="C2E_0" arrivalPos="489.60" arrivalSpeed="14.62" duration="71.00" routeLength="994.90" waitingTime="0.00" waitingCount="0" stopTime="0.00" timeLoss="6.05" rerouteNo="0" devices="tripinfo_flow_off_W2E.8 routing_flow_off_W2E.8 emissions_flow_off_W2E.8" vType="car" speedFactor="1.11" vaporized="">
        <emissions CO_abs="1246.31" CO2_abs="181732.33" HC_abs="8.36" PMx_abs="21.68" NOx_abs="64.54" fuel_abs="58915.17" electricity_abs="0.00"/>
    </tripinfo>
    <tripinfo id="flow_off_E2W.5" depart="185.00" departLane="E2C_0" departPos="5.10" departSpeed="0.00" departDelay="0.00" arrival="254.00" arrivalLane="C2W_0" arrivalPos="489.60" arrivalSpeed="15.48" duration="69.00" routeLength="994.90" waitingTime="0.00" waitingCount="0" stopTime="0.00" timeLoss="6.17" rerouteNo="0" devices="tripinfo_flow_off_E2W.5 routing_flow_off_E2W.5 emissions_flow_off_E2W.5" vType="car" speedFactor="1.16" vaporized="">
        <emissions CO_abs="1315.84" CO2_abs="183955.43" HC_abs="8.84" PMx_abs="22.59" NOx_abs="65.66" fuel_abs="59635.86" electricity_abs="0.00"/>
    </tripinfo>
    <tripinfo id="flow_off_W2E.9" depart="179.00" departLane="W2C_0" departPos="5.10" departSpeed="0.00" departDelay="1.00" arrival="262.00" arrivalLane="C2E_0" arrivalPos="489.60" arrivalSpeed="13.11" duration="83.00" routeLength="994.90" waitingTime="0.00" waitingCount="0" stopTime="0.00" timeLoss="6.72" rerouteNo="0" devices="tripinfo_flow_off_W2E.9 routing_flow_off_W2E.9 emissions_flow_off_W2E.9" vType="car" speedFactor="0.95" vaporized="">
        <emissions CO_abs="917.68" CO2_abs="177765.47" HC_abs="6.15" PMx_abs="20.97" NOx_abs="61.95" fuel_abs="57629.35" electricity_abs="0.00"/>
    </tripinfo>
    <tripinfo id="flow_off_N2S.6" depart="165.00" departLane="N2C_0" departPos="2.10" departSpeed="0.00" departDelay="0.00" arrival="267.00" arrivalLane="C2S_0" arrivalPos="489.60" arrivalSpeed="13.78" duration="102.00" routeLength="997.90" waitingTime="27.00" waitingCount="1" stopTime="0.00" timeLoss="37.78" rerouteNo="0" devices="tripinfo_flow_off_N2S.6 routing_flow_off_N2S.6 emissions_flow_off_N2S.6" vType="moto" speedFactor="1.13" vaporized="">
        <emissions CO_abs="5160.83" CO2_abs="165853.13" HC_abs="2096.54" PMx_abs="42.43" NOx_abs="213.64" fuel_abs="53779.14" electricity_abs="0.00"/>
    </tripinfo>
    <tripinfo id="flow_off_N2S.8" depart="172.00" departLane="N2C_0" departPos="5.10" departSpeed="0.00" departDelay="1.00" arrival="270.00" arrivalLane="C2S_0" arrivalPos="489.60" arrivalSpeed="13.88" duration="98.00" routeLength="994.90" waitingTime="18.00" waitingCount="2" stopTime="0.00" timeLoss="31.22" rerouteNo="0" devices="tripinfo_flow_off_N2S.8 routing_flow_off_N2S.8 emissions_flow_off_N2S.8" vType="car" speedFactor="1.09" vaporized="">
        <emissions CO_abs="1318.43" CO2_abs="241195.64" HC_abs="8.83" PMx_abs="23.00" NOx_abs="85.02" fuel_abs="78192.51" electricity_abs="0.00"/>
    </tripinfo>
    <tripinfo id="flow_off_S2N.8" depart="148.00" departLane="S2C_0" departPos="5.10" departSpeed="0.00" departDelay="0.00" arrival="275.00" arrivalLane="C2N_0" arrivalPos="489.60" arrivalSpeed="12.05" duration="127.00" routeLength="994.90" waitingTime="39.00" waitingCount="1" stopTime="0.00" timeLoss="50.37" rerouteNo="0" devices="tripinfo_flow_off_S2N.8 routing_flow_off_S2N.8 emissions_flow_off_S2N.8" vType="car" speedFactor="0.94" vaporized="">
        <emissions CO_abs="923.94" CO2_abs="257533.19" HC_abs="6.19" PMx_abs="22.05" NOx_abs="91.67" fuel_abs="83489.43" electricity_abs="0.00"/>
    </tripinfo>
    <tripinfo id="flow_off_S2N.9" depart="153.00" departLane="S2C_0" departPos="15.10" departSpeed="0.00" departDelay="0.00" arrival="277.00" arrivalLane="C2N_1" arrivalPos="489.60" arrivalSpeed="14.08" duration="124.00" routeLength="984.90" waitingTime="31.00" waitingCount="1" stopTime="0.00" timeLoss="54.18" rerouteNo="0" devices="tripinfo_flow_off_S2N.9 routing_flow_off_S2N.9 emissions_flow_off_S2N.9" vType="truck" speedFactor="1.02" vaporized="">
        <emissions CO_abs="164.05" CO2_abs="555855.58" HC_abs="13.70" PMx_abs="182.84" NOx_abs="236.37" fuel_abs="178642.41" electricity_abs="0.00"/>
    </tripinfo>
    <tripinfo id="flow_off_N2S.10" depart="198.00" departLane="N2C_0" departPos="12.10" departSpeed="0.00" departDelay="0.00" arrival="278.00" arrivalLane="C2S_1" arrivalPos="489.60" arrivalSpeed="13.76" duration="80.00" routeLength="987.90" waitingTime="0.00" waitingCount="0" stopTime="0.00" timeLoss="8.42" rerouteNo="0" devices="tripinfo_flow_off_N2S.10 routing_flow_off_N2S.10 emissions_flow_off_N2S.10" vType="bus" speedFactor="1.00" vaporized="">
        <emissions CO_abs="197.70" CO2_abs="1057621.26" HC_abs="19.07" PMx_abs="129.60" NOx_abs="420.99" fuel_abs="339881.44" electricity_abs="0.00"/>
    </tripinfo>
    <tripinfo id="flow_off_N2S.9" depart="175.00" departLane="N2C_0" departPos="2.10" departSpeed="0.00" departDelay="3.00" arrival="279.00" arrivalLane="C2S_0" arrivalPos="489.60" arrivalSpeed="11.30" duration="104.00" routeLength="997.90" waitingTime="11.00" waitingCount="1" stopTime="0.00" timeLoss="23.93" rerouteNo="0" devices="tripinfo_flow_off_N2S.9 routing_flow_off_N2S.9 emissions_flow_off_N2S.9" vType="moto" speedFactor="0.90" vaporized="">
        <emissions CO_abs="3096.73" CO2_abs="140145.84" HC_abs="1766.18" PMx_abs="36.12" NOx_abs="165.77" fuel_abs="45443.34" electricity_abs="0.00"/>
    </tripinfo>
    <tripinfo id="flow_off_S2N.7" depart="140.00" departLane="S2C_0" departPos="5.10" departSpeed="0.00" departDelay="4.00" arrival="280.00" arrivalLane="C2N_0" arrivalPos="489.60" arrivalSpeed="11.47" duration="140.00" routeLength="994.90" waitingTime="42.00" waitingCount="1" stopTime="0.00" timeLoss="52.82" rerouteNo="0" devices="tripinfo_flow_off_S2N.7 routing_flow_off_S2N.7 emissions_flow_off_S2N.7" vType="car" speedFactor="0.83" vaporized="">
        <emissions CO_abs="809.95" CO2_abs="271729.74" HC_abs="5.42" PMx_abs="21.90" NOx_abs="96.47" fuel_abs="88091.79" electricity_abs="0.00"/>
    </tripinfo>
    <tripinfo id="flow_off_N2S.12" depart="207.00" departLane="N2C_0" departPos="5.10" departSpeed="0.00" departDelay="3.00" arrival="280.00" arrivalLane="C2S_1" arrivalPos="489.60" arrivalSpeed="14.72" duration="73.00" routeLength="994.90" waitingTime="0.00" waitingCount="0" stopTime="0.00" timeLoss="8.50" rerouteNo="0" devices="tripinfo_flow_off_N2S.12 routing_flow_off_N2S.12 emissions_flow_off_N2S.12" vType="car" speedFactor="1.12" vaporized="">
        <emissions CO_abs="1222.67" CO2_abs="186559.52" HC_abs="8.21" PMx_abs="22.56" NOx_abs="66.21" fuel_abs="60480.14" electricity_abs="0.00"/>
    </tripinfo>
    <tripinfo id="flow_off_N2S.7" depart="168.00" departLane="N2C_0" departPos="15.10" departSpeed="0.00" departDelay="2.00" arrival="282.00" arrivalLane="C2S_0" arrivalPos="489.60" arrivalSpeed="13.41" duration="114.00" routeLength="984.90" waitingTime="17.00" waitingCount="1" stopTime="0.00" timeLoss="42.20" rerouteNo="0" devices="tripinfo_flow_off_N2S.7 routing_flow_off_N2S.7 emissions_flow_off_N2S.7" vType="truck" speedFactor="0.99" vaporized="">
        <emissions CO_abs="151.63" CO2_abs="509594.40" HC_abs="12.49" PMx_abs="165.42" NOx_abs="232.76" fuel_abs="163775.24" electricity_abs="0.00"/>
    </tripinfo>
    <tripinfo id="flow_off_N2S.11" depart="203.00" departLane="N2C_0" departPos="12.10" departSpeed="0.00" departDelay="2.00" arrival="283.00" arrivalLane="C2S_1" arrivalPos="489.60" arrivalSpeed="13.49" duration="80.00" routeLength="987.90" waitingTime="0.00" waitingCount="0" stopTime="0.00" timeLoss="8.73" rerouteNo="0" devices="tripinfo_flow_off_N2S.11 routing_flow_off_N2S.11 emissions_flow_off_N2S.11" vType="bus" speedFactor="1.00" vaporized="">
        <emissions CO_abs="198.15" CO2_abs="1046779.58" HC_abs="19.09" PMx_abs="131.23" NOx_abs="424.73" fuel_abs="336396.90" electricity_abs="0.00"/>
    </tripinfo>
    <tripinfo id="flow_off_S2N.10" depart="216.00" departLane="S2C_0" departPos="5.10" departSpeed="0.00" departDelay="0.00" arrival="286.00" arrivalLane="C2N_0" arrivalPos="489.60" arrivalSpeed="14.84" duration="70.00" routeLength="994.90" waitingTime="0.00" waitingCount="0" stopTime="0.00" timeLoss="5.57" rerouteNo="0" devices="tripinfo_flow_off_S2N.10 routing_flow_off_S2N.10 emissions_flow_off_S2N.10" vType="car" speedFactor="1.11" vaporized="">
        <emissions CO_abs="1273.58" CO2_abs="185943.34" HC_abs="8.54" PMx_abs="22.83" NOx_abs="66.07" fuel_abs="60280.36" electricity_abs="0.00"/>
    </tripinfo>
    <tripinfo id="flow_off_N2S.13" depart="210.00" departLane="N2C_0" departPos="5.10" departSpeed="0.00" departDelay="1.00" arrival="293.00" arrivalLane="C2S_0" arrivalPos="489.60" arrivalSpeed="12.76" duration="83.00" routeLength="994.90" waitingTime="0.00" waitingCount="0" stopTime="0.00" timeLoss="6.66" rerouteNo="0" devices="tripinfo_flow_off_N2S.13 routing_flow_off_N2S.13 emissions_flow_off_N2S.13" vType="car" speedFactor="0.94" vaporized="">
        <emissions CO_abs="948.77" CO2_abs="178848.63" HC_abs="6.35" PMx_abs="20.20" NOx_abs="62.15" fuel_abs="57980.44" electricity_abs="0.00"/>
    </tripinfo>
    <tripinfo id="flow_off_W2E.11" depart="190.00" departLane="W2C_0" departPos="5.10" departSpeed="0.00" departDelay="0.00" arrival="308.00" arrivalLane="C2E_0" arrivalPos="489.60" arrivalSpeed="14.62" duration="118.00" routeLength="994.90" waitingTime="37.00" waitingCount="1" stopTime="0.00" timeLoss="49.97" rerouteNo="0" devices="tripinfo_flow_off_W2E.11 routing_flow_off_W2E.11 emissions_flow_off_W2E.11" vType="car" speedFactor="1.06" vaporized="">
        <emissions CO_abs="1296.15" CO2_abs="273308.76" HC_abs="8.68" PMx_abs="23.46" NOx_abs="98.14" fuel_abs="88603.40" electricity_abs="0.00"/>
    </tripinfo>
    <tripinfo id="flow_off_E2W.6" depart="204.00" departLane="E2C_0" departPos="2.10" departSpeed="0.00" departDelay="0.00" arrival="310.00" arrivalLane="C2W_0" arrivalPos="489.60" arrivalSpeed="13.53" duration="106.00" routeLength="997.90" waitingTime="23.00" waitingCount="1" stopTime="0.00" timeLoss="34.09" rerouteNo="0" devices="tripinfo_flow_off_E2W.6 routing_flow_off_E2W.6 emissions_flow_off_E2W.6" vType="moto" speedFactor="1.01" vaporized="">
        <emissions CO_abs="4085.36" CO2_abs="158055.46" HC_abs="2003.29" PMx_abs="40.90" NOx_abs="191.83" fuel_abs="51250.75" electricity_abs="0.00"/>
    </tripinfo>
    <tripinfo id="flow_off_W2E.10" depart="185.00" departLane="W2C_0" departPos="12.10" departSpeed="0.00" departDelay="0.00" arrival="312.00" arrivalLane="C2E_0" arrivalPos="489.60" arrivalSpeed="13.81" duration="127.00" routeLength="987.90" waitingTime="39.00" waitingCount="1" stopTime="0.00" timeLoss="55.53" rerouteNo="0" devices="tripinfo_flow_off_W2E.10 routing_flow_off_W2E.10 emissions_flow_off_W2E.10" vType="bus" speedFactor="1.00" vaporized="">
        <emissions CO_abs="306.20" CO2_abs="1324624.38" HC_abs="25.49" PMx_abs="189.26" NOx_abs="602.46" fuel_abs="425690.69" electricity_abs="0.00"/>
    </tripinfo>
    <tripinfo id="flow_off_W2E.13" depart="201.00" departLane="W2C_0" departPos="12.10" departSpeed="0.00" departDelay="0.00" arrival="315.00" arrivalLane="C2E_0" arrivalPos="489.60" arrivalSpeed="13.84" duration="114.00" routeLength="987.90" waitingTime="25.00" waitingCount="1" stopTime="0.00" timeLoss="42.40" rerouteNo="0" devices="tripinfo_flow_off_W2E.13 routing_flow_off_W2E.13 emissions_flow_off_W2E.13" vType="bus" speedFactor="1.00" vaporized="">
        <emissions CO_abs="285.05" CO2_abs="1290155.79" HC_abs="24.43" PMx_abs="178.90" NOx_abs="569.45" fuel_abs="414611.88" electricity_abs="0.00"/>
    </tripinfo>
    <tripinfo id="flow_off_E2W.7" depart="245.00" departLane="E2C_0" departPos="5.10" departSpeed="0.00" departDelay="0.00" arrival="317.00" arrivalLane="C2W_0" arrivalPos="489.60" arrivalSpeed="13.76" duration="72.00" routeLength="994.90" waitingTime="0.00" waitingCount="0" stopTime="0.00" timeLoss="5.77" rerouteNo="0" devices="tripinfo_flow_off_E2W.7 routing_flow_off_E2W.7 emissions_flow_off_E2W.7" vType="car" speedFactor="1.08" vaporized="">
        <emissions CO_abs="1158.96" CO2_abs="174879.26" HC_abs="7.77" PMx_abs="20.81" NOx_abs="61.83" fuel_abs="56693.52" electricity_abs="0.00"/>
    </tripinfo>