<?xml version="1.0" encoding="UTF-8"?>

<!-- generated on 2026-05-03T09:59:37.656370+07:00 by Eclipse SUMO libsumo 1.26.0
<libsumoConfiguration xmlns:xsi="http://www.w3.org/2001/XMLSchema-instance" xsi:noNamespaceSchemaLocation="http://sumo.dlr.de/xsd/libsumoConfiguration.xsd">

    <input>
        <net-file value="sumo/network.net.xml"/>
        <route-files value="sumo/routes.rou.xml"/>
        <additional-files value="sumo/tls.add.xml,sumo/traffic.add.xml"/>
    </input>

    <output>
        <tripinfo-output value="C:\Users\DELL\Downloads\project\runs\exp_20260503_092403\evaluation\tripinfo_rl.xml"/>
        <tripinfo-output.write-unfinished value="true"/>
    </output>

    <time>
        <begin value="0"/>
        <end value="7200"/>
    </time>

    <processing>
        <time-to-teleport value="300"/>
        <waiting-time-memory value="10000"/>
    </processing>

    <report>
        <verbose value="false"/>
        <no-warnings value="true"/>
        <no-step-log value="true"/>
    </report>

    <emissions>
        <device.emissions.probability value="1.0"/>
    </emissions>

    <random_number>
        <seed value="44"/>
    </random_number>

</libsumoConfiguration>
-->

<tripinfos xmlns:xsi="http://www.w3.org/2001/XMLSchema-instance" xsi:noNamespaceSchemaLocation="http://sumo.dlr.de/xsd/tripinfo_file.xsd">
    <tripinfo id="flow_off_W2E.0" depart="0.00" departLane="W2C_0" departPos="2.10" departSpeed="0.00" departDelay="0.00" arrival="84.00" arrivalLane="C2E_0" arrivalPos="489.60" arrivalSpeed="11.39" duration="84.00" routeLength="997.90" waitingTime="0.00" waitingCount="0" stopTime="0.00" timeLoss="7.63" rerouteNo="0" devices="tripinfo_flow_off_W2E.0 routing_flow_off_W2E.0 emissions_flow_off_W2E.0" vType="moto" speedFactor="0.95" vaporized="">
        <emissions CO_abs="3445.18" CO2_abs="112083.48" HC_abs="1347.55" PMx_abs="27.22" NOx_abs="157.94" fuel_abs="36343.71" electricity_abs="0.00"/>
    </tripinfo>
    <tripinfo id="flow_off_S2N.1" depart="12.00" departLane="S2C_0" departPos="5.10" departSpeed="0.00" departDelay="2.00" arrival="99.00" arrivalLane="C2N_0" arrivalPos="489.60" arrivalSpeed="12.46" duration="87.00" routeLength="994.90" waitingTime="0.00" waitingCount="0" stopTime="0.00" timeLoss="7.14" rerouteNo="0" devices="tripinfo_flow_off_S2N.1 routing_flow_off_S2N.1 emissions_flow_off_S2N.1" vType="car" speedFactor="0.91" vaporized="">
        <emissions CO_abs="903.48" CO2_abs="186457.55" HC_abs="6.05" PMx_abs="21.28" NOx_abs="64.68" fuel_abs="60447.23" electricity_abs="0.00"/>
    </tripinfo>
    <tripinfo id="flow_off_S2N.0" depart="9.00" departLane="S2C_0" departPos="5.10" departSpeed="0.00" departDelay="0.00" arrival="103.00" arrivalLane="C2N_0" arrivalPos="489.60" arrivalSpeed="10.78" duration="94.00" routeLength="994.90" waitingTime="0.00" waitingCount="0" stopTime="0.00" timeLoss="8.63" rerouteNo="0" devices="tripinfo_flow_off_S2N.0 routing_flow_off_S2N.0 emissions_flow_off_S2N.0" vType="car" speedFactor="0.85" vaporized="">
        <emissions CO_abs="816.84" CO2_abs="185380.18" HC_abs="5.46" PMx_abs="19.61" NOx_abs="63.61" fuel_abs="60097.94" electricity_abs="0.00"/>
    </tripinfo>
    <tripinfo id="flow_off_E2W.0" depart="34.00" departLane="E2C_0" departPos="12.10" departSpeed="0.00" departDelay="0.00" arrival="114.00" arrivalLane="C2W_0" arrivalPos="489.60" arrivalSpeed="13.83" duration="80.00" routeLength="987.90" waitingTime="0.00" waitingCount="0" stopTime="0.00" timeLoss="8.33" rerouteNo="0" devices="tripinfo_flow_off_E2W.0 routing_flow_off_E2W.0 emissions_flow_off_E2W.0" vType="bus" speedFactor="1.00" vaporized="">
        <emissions CO_abs="197.47" CO2_abs="1042433.21" HC_abs="19.06" PMx_abs="131.17" NOx_abs="423.94" fuel_abs="334999.96" electricity_abs="0.00"/>
    </tripinfo>
    <tripinfo id="flow_off_N2S.0" depart="36.00" departLane="N2C_0" departPos="2.10" departSpeed="0.00" departDelay="0.00" arrival="120.00" arrivalLane="C2S_0" arrivalPos="489.60" arrivalSpeed="16.64" duration="84.00" routeLength="997.90" waitingTime="12.00" waitingCount="1" stopTime="0.00" timeLoss="24.18" rerouteNo="0" devices="tripinfo_flow_off_N2S.0 routing_flow_off_N2S.0 emissions_flow_off_N2S.0" vType="moto" speedFactor="1.22" vaporized="">
        <emissions CO_abs="6022.22" CO2_abs="148079.75" HC_abs="1739.92" PMx_abs="34.48" NOx_abs="223.66" fuel_abs="48015.49" electricity_abs="0.00"/>
    </tripinfo>
    <tripinfo id="flow_off_N2S.2" depart="45.00" departLane="N2C_0" departPos="5.10" departSpeed="0.00" departDelay="1.00" arrival="125.00" arrivalLane="C2S_0" arrivalPos="489.60" arrivalSpeed="14.69" duration="80.00" routeLength="994.90" waitingTime="0.00" waitingCount="0" stopTime="0.00" timeLoss="11.70" rerouteNo="0" devices="tripinfo_flow_off_N2S.2 routing_flow_off_N2S.2 emissions_flow_off_N2S.2" vType="car" speedFactor="1.06" vaporized="">
        <emissions CO_abs="1281.06" CO2_abs="208908.23" HC_abs="8.56" PMx_abs="21.94" NOx_abs="72.38" fuel_abs="67725.09" electricity_abs="0.00"/>
    </tripinfo>
    <tripinfo id="flow_off_W2E.1" depart="32.00" departLane="W2C_0" departPos="5.10" departSpeed="0.00" departDelay="0.00" arrival="128.00" arrivalLane="C2E_0" arrivalPos="489.60" arrivalSpeed="10.84" duration="96.00" routeLength="994.90" waitingTime="0.00" waitingCount="0" stopTime="0.00" timeLoss="7.55" rerouteNo="0" devices="tripinfo_flow_off_W2E.1 routing_flow_off_W2E.1 emissions_flow_off_W2E.1" vType="car" speedFactor="0.82" vaporized="">
        <emissions CO_abs="760.13" CO2_abs="189509.62" HC_abs="5.08" PMx_abs="20.86" NOx_abs="65.30" fuel_abs="61436.76" electricity_abs="0.00"/>
    </tripinfo>
    <tripinfo id="flow_off_N2S.1" depart="42.00" departLane="N2C_0" departPos="5.10" departSpeed="0.00" departDelay="0.00" arrival="130.00" arrivalLane="C2S_0" arrivalPos="489.60" arrivalSpeed="12.82" duration="88.00" routeLength="994.90" waitingTime="0.00" waitingCount="0" stopTime="0.00" timeLoss="11.79" rerouteNo="0" devices="tripinfo_flow_off_N2S.1 routing_flow_off_N2S.1 emissions_flow_off_N2S.1" vType="car" speedFactor="0.94" vaporized="">
        <emissions CO_abs="992.97" CO2_abs="203683.92" HC_abs="6.65" PMx_abs="21.92" NOx_abs="69.49" fuel_abs="66031.65" electricity_abs="0.00"/>
    </tripinfo>
    <tripinfo id="flow_off_N2S.3" depart="52.00" departLane="N2C_0" departPos="12.10" departSpeed="0.00" departDelay="0.00" arrival="132.00" arrivalLane="C2S_1" arrivalPos="489.60" arrivalSpeed="13.55" duration="80.00" routeLength="987.90" waitingTime="0.00" waitingCount="0" stopTime="0.00" timeLoss="8.21" rerouteNo="0" devices="tripinfo_flow_off_N2S.3 routing_flow_off_N2S.3 emissions_flow_off_N2S.3" vType="bus" speedFactor="1.00" vaporized="">
        <emissions CO_abs="195.74" CO2_abs="1051274.18" HC_abs="18.90" PMx_abs="128.04" NOx_abs="416.80" fuel_abs="337841.87" electricity_abs="0.00"/>
    </tripinfo>
    <tripinfo id="flow_off_S2N.2" depart="53.00" departLane="S2C_0" departPos="5.10" departSpeed="0.00" departDelay="0.00" arrival="135.00" arrivalLane="C2N_0" arrivalPos="489.60" arrivalSpeed="12.40" duration="82.00" routeLength="994.90" waitingTime="0.00" waitingCount="0" stopTime="0.00" timeLoss="6.59" rerouteNo="0" devices="tripinfo_flow_off_S2N.2 routing_flow_off_S2N.2 emissions_flow_off_S2N.2" vType="car" speedFactor="0.96" vaporized="">
        <emissions CO_abs="875.53" CO2_abs="178440.70" HC_abs="5.89" PMx_abs="22.42" NOx_abs="62.45" fuel_abs="57848.34" electricity_abs="0.00"/>
    </tripinfo>
    <tripinfo id="flow_off_W2E.3" depart="52.00" departLane="W2C_0" departPos="5.10" departSpeed="0.00" departDelay="0.00" arrival="143.00" arrivalLane="C2E_0" arrivalPos="489.60" arrivalSpeed="12.84" duration="91.00" routeLength="994.90" waitingTime="8.00" waitingCount="1" stopTime="0.00" timeLoss="19.92" rerouteNo="0" devices="tripinfo_flow_off_W2E.3 routing_flow_off_W2E.3 emissions_flow_off_W2E.3" vType="car" speedFactor="1.01" vaporized="">
        <emissions CO_abs="1197.75" CO2_abs="221548.99" HC_abs="8.01" PMx_abs="21.74" NOx_abs="76.96" fuel_abs="71823.17" electricity_abs="0.00"/>
    </tripinfo>
    <tripinfo id="flow_off_W2E.4" depart="60.00" departLane="W2C_0" departPos="5.10" departSpeed="0.00" departDelay="0.00" arrival="148.00" arrivalLane="C2E_0" arrivalPos="489.60" arrivalSpeed="11.48" duration="88.00" routeLength="994.90" waitingTime="0.00" waitingCount="0" stopTime="0.00" timeLoss="9.39" rerouteNo="0" devices="tripinfo_flow_off_W2E.4 routing_flow_off_W2E.4 emissions_flow_off_W2E.4" vType="car" speedFactor="0.91" vaporized="">
        <emissions CO_abs="936.06" CO2_abs="187074.61" HC_abs="6.25" PMx_abs="20.08" NOx_abs="64.51" fuel_abs="60647.19" electricity_abs="0.00"/>
    </tripinfo>
    <tripinfo id="flow_off_W2E.2" depart="39.00" departLane="W2C_0" departPos="2.10" departSpeed="0.00" departDelay="0.00" arrival="157.00" arrivalLane="C2E_0" arrivalPos="489.60" arrivalSpeed="8.69" duration="118.00" routeLength="997.90" waitingTime="7.00" waitingCount="1" stopTime="0.00" timeLoss="22.04" rerouteNo="0" devices="tripinfo_flow_off_W2E.2 routing_flow_off_W2E.2 emissions_flow_off_W2E.2" vType="moto" speedFactor="0.75" vaporized="">
        <emissions CO_abs="2291.16" CO2_abs="146139.17" HC_abs="1866.21" PMx_abs="38.94" NOx_abs="153.11" fuel_abs="47386.93" electricity_abs="0.00"/>
    </tripinfo>
    <tripinfo id="flow_off_N2S.4" depart="58.00" departLane="N2C_0" departPos="5.10" departSpeed="0.00" departDelay="0.00" arrival="161.00" arrivalLane="C2S_0" arrivalPos="489.60" arrivalSpeed="12.64" duration="103.00" routeLength="994.90" waitingTime="14.00" waitingCount="1" stopTime="0.00" timeLoss="27.93" rerouteNo="0" devices="tripinfo_flow_off_N2S.4 routing_flow_off_N2S.4 emissions_flow_off_N2S.4" vType="car" speedFactor="0.96" vaporized="">
        <emissions CO_abs="1042.33" CO2_abs="222670.65" HC_abs="6.96" PMx_abs="20.45" NOx_abs="77.72" fuel_abs="72186.97" electricity_abs="0.00"/>
    </tripinfo>
    <tripinfo id="flow_off_S2N.3" depart="64.00" departLane="S2C_0" departPos="12.10" departSpeed="0.00" departDelay="0.00" arrival="162.00" arrivalLane="C2N_0" arrivalPos="489.60" arrivalSpeed="13.35" duration="98.00" routeLength="987.90" waitingTime="9.00" waitingCount="1" stopTime="0.00" timeLoss="26.43" rerouteNo="0" devices="tripinfo_flow_off_S2N.3 routing_flow_off_S2N.3 emissions_flow_off_S2N.3" vType="bus" speedFactor="1.00" vaporized="">
        <emissions CO_abs="247.25" CO2_abs="1236701.76" HC_abs="21.90" PMx_abs="149.27" NOx_abs="483.98" fuel_abs="397434.33" electricity_abs="0.00"/>
    </tripinfo>
    <tripinfo id="flow_off_S2N.4" depart="86.00" departLane="S2C_0" departPos="2.10" departSpeed="0.00" departDelay="0.00" arrival="164.00" arrivalLane="C2N_1" arrivalPos="489.60" arrivalSpeed="12.40" duration="78.00" routeLength="997.90" waitingTime="0.00" waitingCount="0" stopTime="0.00" timeLoss="7.54" rerouteNo="0" devices="tripinfo_flow_off_S2N.4 routing_flow_off_S2N.4 emissions_flow_off_S2N.4" vType="moto" speedFactor="1.03" vaporized="">
        <emissions CO_abs="4022.84" CO2_abs="110846.87" HC_abs="1307.27" PMx_abs="26.19" NOx_abs="166.41" fuel_abs="35942.64" electricity_abs="0.00"/>
    </tripinfo>
    <tripinfo id="flow_off_E2W.1" depart="91.00" departLane="E2C_0" departPos="12.10" departSpeed="0.00" departDelay="0.00" arrival="172.00" arrivalLane="C2W_0" arrivalPos="489.60" arrivalSpeed="13.79" duration="81.00" routeLength="987.90" waitingTime="0.00" waitingCount="0" stopTime="0.00" timeLoss="9.71" rerouteNo="0" devices="tripinfo_flow_off_E2W.1 routing_flow_off_E2W.1 emissions_flow_off_E2W.1" vType="bus" speedFactor="1.00" vaporized="">
        <emissions CO_abs="204.87" CO2_abs="1122503.04" HC_abs="19.65" PMx_abs="129.68" NOx_abs="425.87" fuel_abs="360733.61" electricity_abs="0.00"/>
    </tripinfo>
    <tripinfo id="flow_off_W2E.5" depart="90.00" departLane="W2C_0" departPos="5.10" departSpeed="0.00" departDelay="0.00" arrival="176.00" arrivalLane="C2E_0" arrivalPos="489.60" arrivalSpeed="12.95" duration="86.00" routeLength="994.90" waitingTime="0.00" waitingCount="0" stopTime="0.00" timeLoss="11.24" rerouteNo="0" devices="tripinfo_flow_off_W2E.5 routing_flow_off_W2E.5 emissions_flow_off_W2E.5" vType="car" speedFactor="0.96" vaporized="">
        <emissions CO_abs="1044.59" CO2_abs="198848.05" HC_abs="6.98" PMx_abs="20.51" NOx_abs="68.10" fuel_abs="64463.81" electricity_abs="0.00"/>
    </tripinfo>
    <tripinfo id="flow_off_W2E.6" depart="101.00" departLane="W2C_0" departPos="5.10" departSpeed="0.00" departDelay="0.00" arrival="181.00" arrivalLane="C2E_0" arrivalPos="489.60" arrivalSpeed="12.45" duration="80.00" routeLength="994.90" waitingTime="0.00" waitingCount="0" stopTime="0.00" timeLoss="6.67" rerouteNo="0" devices="tripinfo_flow_off_W2E.6 routing_flow_off_W2E.6 emissions_flow_off_W2E.6" vType="car" speedFactor="0.98" vaporized="">
        <emissions CO_abs="980.15" CO2_abs="175892.82" HC_abs="6.57" PMx_abs="20.21" NOx_abs="61.32" fuel_abs="57022.19" electricity_abs="0.00"/>
    </tripinfo>
    <tripinfo id="flow_off_N2S.5" depart="89.00" departLane="N2C_0" departPos="5.10" departSpeed="0.00" departDelay="0.00" arrival="192.00" arrivalLane="C2S_0" arrivalPos="489.60" arrivalSpeed="13.05" duration="103.00" routeLength="994.90" waitingTime="18.00" waitingCount="1" stopTime="0.00" timeLoss="28.97" rerouteNo="0" devices="tripinfo_flow_off_N2S.5 routing_flow_off_N2S.5 emissions_flow_off_N2S.5" vType="car" speedFactor="0.98" vaporized="">
        <emissions CO_abs="1113.23" CO2_abs="230933.44" HC_abs="7.44" PMx_abs="21.40" NOx_abs="80.79" fuel_abs="74865.75" electricity_abs="0.00"/>
    </tripinfo>
    <tripinfo id="flow_off_E2W.2" depart="104.00" departLane="E2C_0" departPos="5.10" departSpeed="0.00" departDelay="0.00" arrival="212.00" arrivalLane="C2W_0" arrivalPos="489.60" arrivalSpeed="11.39" duration="108.00" routeLength="994.90" waitingTime="15.00" waitingCount="1" stopTime="0.00" timeLoss="26.59" rerouteNo="0" devices="tripinfo_flow_off_E2W.2 routing_flow_off_E2W.2 emissions_flow_off_E2W.2" vType="car" speedFactor="0.89" vaporized="">
        <emissions CO_abs="986.21" CO2_abs="225244.48" HC_abs="6.58" PMx_abs="19.82" NOx_abs="77.95" fuel_abs="73021.45" electricity_abs="0.00"/>
    </tripinfo>
    <tripinfo id="flow_off_S2N.5" depart="130.00" departLane="S2C_0" departPos="5.10" departSpeed="0.00" departDelay="0.00" arrival="226.00" arrivalLane="C2N_0" arrivalPos="489.60" arrivalSpeed="12.09" duration="96.00" routeLength="994.90" waitingTime="8.00" waitingCount="1" stopTime="0.00" timeLoss="19.04" rerouteNo="0" devices="tripinfo_flow_off_S2N.5 routing_flow_off_S2N.5 emissions_flow_off_S2N.5" vType="car" speedFactor="0.94" vaporized="">
        <emissions CO_abs="1019.18" CO2_abs="215142.28" HC_abs="6.81" PMx_abs="21.25" NOx_abs="74.27" fuel_abs="69746.30" electricity_abs="0.00"/>
    </tripinfo>
    <tripinfo id="flow_off_S2N.6" depart="134.00" departLane="S2C_0" departPos="15.10" departSpeed="0.00" departDelay="2.00" arrival="227.00" arrivalLane="C2N_1" arrivalPos="489.60" arrivalSpeed="14.25" duration="93.00" routeLength="984.90" waitingTime="2.00" waitingCount="1" stopTime="0.00" timeLoss="25.25" rerouteNo="0" devices="tripinfo_flow_off_S2N.6 routing_flow_off_S2N.6 emissions_flow_off_S2N.6" vType="truck" speedFactor="1.05" vaporized="">
        <emissions CO_abs="136.48" CO2_abs="510097.40" HC_abs="11.51" PMx_abs="146.26" NOx_abs="243.41" fuel_abs="163940.54" electricity_abs="0.00"/>
    </tripinfo>
    <tripinfo id="flow_off_S2N.8" depart="148.00" departLane="S2C_0" departPos="5.10" departSpeed="0.00" departDelay="0.00" arrival="232.00" arrivalLane="C2N_1" arrivalPos="489.60" arrivalSpeed="12.13" duration="84.00" routeLength="994.90" waitingTime="0.00" waitingCount="0" stopTime="0.00" timeLoss="7.24" rerouteNo="0" devices="tripinfo_flow_off_S2N.8 routing_flow_off_S2N.8 emissions_flow_off_S2N.8" vType="car" speedFactor="0.94" vaporized="">
        <emissions CO_abs="1000.45" CO2_abs="185913.27" HC_abs="6.68" PMx_abs="20.44" NOx_abs="64.53" fuel_abs="60270.68" electricity_abs="0.00"/>
    </tripinfo>
    <tripinfo id="flow_off_S2N.7" depart="138.00" departLane="S2C_0" departPos="5.10" departSpeed="0.00" departDelay="2.00" arrival="234.00" arrivalLane="C2N_0" arrivalPos="489.60" arrivalSpeed="10.71" duration="96.00" routeLength="994.90" waitingTime="0.00" waitingCount="0" stopTime="0.00" timeLoss="8.49" rerouteNo="0" devices="tripinfo_flow_off_S2N.7 routing_flow_off_S2N.7 emissions_flow_off_S2N.7" vType="car" speedFactor="0.83" vaporized="">
        <emissions CO_abs="717.88" CO2_abs="186755.54" HC_abs="4.81" PMx_abs="21.25" NOx_abs="64.68" fuel_abs="60543.98" electricity_abs="0.00"/>
    </tripinfo>
    <tripinfo id="flow_off_W2E.7" depart="163.00" departLane="W2C_0" departPos="2.10" departSpeed="0.00" departDelay="0.00" arrival="235.00" arrivalLane="C2E_0" arrivalPos="489.60" arrivalSpeed="14.56" duration="72.00" routeLength="997.90" waitingTime="0.00" waitingCount="0" stopTime="0.00" timeLoss="5.80" rerouteNo="0" devices="tripinfo_flow_off_W2E.7 routing_flow_off_W2E.7 emissions_flow_off_W2E.7" vType="moto" speedFactor="1.09" vaporized="">
        <emissions CO_abs="4610.97" CO2_abs="112547.33" HC_abs="1311.86" PMx_abs="26.22" NOx_abs="176.63" fuel_abs="36493.99" electricity_abs="0.00"/>
    </tripinfo>
    <tripinfo id="flow_off_E2W.4" depart="157.00" departLane="E2C_0" departPos="2.10" departSpeed="0.00" departDelay="0.00" arrival="237.00" arrivalLane="C2W_0" arrivalPos="489.60" arrivalSpeed="14.42" duration="80.00" routeLength="997.90" waitingTime="0.00" waitingCount="0" stopTime="0.00" timeLoss="10.52" rerouteNo="0" devices="tripinfo_flow_off_E2W.4 routing_flow_off_E2W.4 emissions_flow_off_E2W.4" vType="moto" speedFactor="1.04" vaporized="">
        <emissions CO_abs="4516.03" CO2_abs="131421.70" HC_abs="1532.28" PMx_abs="31.20" NOx_abs="189.35" fuel_abs="42614.18" electricity_abs="0.00"/>
    </tripinfo>
    <tripinfo id="flow_off_E2W.3" depart="149.00" departLane="E2C_0" departPos="2.10" departSpeed="0.00" departDelay="0.00" arrival="239.00" arrivalLane="C2W_0" arrivalPos="489.60" arrivalSpeed="13.31" duration="90.00" routeLength="997.90" waitingTime="6.00" waitingCount="1" stopTime="0.00" timeLoss="16.70" rerouteNo="0" devices="tripinfo_flow_off_E2W.3 routing_flow_off_E2W.3 emissions_flow_off_E2W.3" vType="moto" speedFactor="0.98" vaporized="">
        <emissions CO_abs="4086.89" CO2_abs="139669.40" HC_abs="1695.17" PMx_abs="34.13" NOx_abs="189.32" fuel_abs="45288.60" electricity_abs="0.00"/>
    </tripinfo>
    <tripinfo id="flow_off_N2S.6" depart="165.00" departLane="N2C_0" departPos="2.10" departSpeed="0.00" departDelay="0.00" arrival="250.00" arrivalLane="C2S_0" arrivalPos="489.60" arrivalSpeed="15.39" duration="85.00" routeLength="997.90" waitingTime="9.00" waitingCount="1" stopTime="0.00" timeLoss="20.77" rerouteNo="0" devices="tripinfo_flow_off_N2S.6 routing_flow_off_N2S.6 emissions_flow_off_N2S.6" vType="moto" speedFactor="1.13" vaporized="">
        <emissions CO_abs="5041.19" CO2_abs="137998.41" HC_abs="1624.67" PMx_abs="32.28" NOx_abs="203.00" fuel_abs="44746.59" electricity_abs="0.00"/>
    </tripinfo>
    <tripinfo id="flow_off_N2S.8" depart="174.00" departLane="N2C_0" departPos="5.10" departSpeed="0.00" departDelay="3.00" arrival="252.00" arrivalLane="C2S_1" arrivalPos="489.60" arrivalSpeed="14.96" duration="78.00" routeLength="994.90" waitingTime="0.00" waitingCount="0" stopTime="0.00" timeLoss="11.56" rerouteNo="0" devices="tripinfo_flow_off_N2S.8 routing_flow_off_N2S.8 emissions_flow_off_N2S.8" vType="car" speedFactor="1.09" vaporized="">
        <emissions CO_abs="1317.66" CO2_abs="208353.43" HC_abs="8.81" PMx_abs="22.03" NOx_abs="71.92" fuel_abs="67545.23" electricity_abs="0.00"/>
    </tripinfo>
    <tripinfo id="flow_off_N2S.7" depart="169.00" departLane="N2C_0" departPos="15.10" departSpeed="0.00" departDelay="3.00" arrival="258.00" arrivalLane="C2S_0" arrivalPos="489.60" arrivalSpeed="13.73" duration="89.00" routeLength="984.90" waitingTime="0.00" waitingCount="0" stopTime="0.00" timeLoss="16.58" rerouteNo="0" devices="tripinfo_flow_off_N2S.7 routing_flow_off_N2S.7 emissions_flow_off_N2S.7" vType="truck" speedFactor="0.99" vaporized="">
        <emissions CO_abs="124.96" CO2_abs="476766.08" HC_abs="10.71" PMx_abs="135.19" NOx_abs="235.39" fuel_abs="153228.37" electricity_abs="0.00"/>
    </tripinfo>
    <tripinfo id="flow_off_S2N.9" depart="153.00" departLane="S2C_0" departPos="15.10" departSpeed="0.00" departDelay="0.00" arrival="259.00" arrivalLane="C2N_0" arrivalPos="489.60" arrivalSpeed="13.74" duration="106.00" routeLength="984.90" waitingTime="14.00" waitingCount="1" stopTime="0.00" timeLoss="36.11" rerouteNo="0" devices="tripinfo_flow_off_S2N.9 routing_flow_off_S2N.9 emissions_flow_off_S2N.9" vType="truck" speedFactor="1.02" vaporized="">
        <emissions CO_abs="148.09" CO2_abs="522177.83" HC_abs="12.41" PMx_abs="162.99" NOx_abs="240.69" fuel_abs="167821.43" electricity_abs="0.00"/>
    </tripinfo>
    <tripinfo id="flow_off_N2S.9" depart="176.00" departLane="N2C_0" departPos="2.10" departSpeed="0.00" departDelay="4.00" arrival="265.00" arrivalLane="C2S_0" arrivalPos="489.60" arrivalSpeed="12.37" duration="89.00" routeLength="997.90" waitingTime="0.00" waitingCount="0" stopTime="0.00" timeLoss="8.56" rerouteNo="0" devices="tripinfo_flow_off_N2S.9 routing_flow_off_N2S.9 emissions_flow_off_N2S.9" vType="moto" speedFactor="0.90" vaporized="">
        <emissions CO_abs="2821.04" CO2_abs="106849.71" HC_abs="1309.33" PMx_abs="26.79" NOx_abs="139.78" fuel_abs="34646.75" electricity_abs="0.00"/>
    </tripinfo>
    <tripinfo id="flow_off_E2W.5" depart="185.00" departLane="E2C_0" departPos="5.10" departSpeed="0.00" departDelay="0.00" arrival="266.00" arrivalLane="C2W_0" arrivalPos="489.60" arrivalSpeed="15.31" duration="81.00" routeLength="994.90" waitingTime="5.00" waitingCount="1" stopTime="0.00" timeLoss="18.89" rerouteNo="0" devices="tripinfo_flow_off_E2W.5 routing_flow_off_E2W.5 emissions_flow_off_E2W.5" vType="car" speedFactor="1.16" vaporized="">
        <emissions CO_abs="1545.53" CO2_abs="227333.85" HC_abs="10.33" PMx_abs="22.11" NOx_abs="80.22" fuel_abs="73698.35" electricity_abs="0.00"/>
    </tripinfo>
    <tripinfo id="flow_off_W2E.8" depart="176.00" departLane="W2C_0" departPos="5.10" departSpeed="0.00" departDelay="0.00" arrival="267.00" arrivalLane="C2E_0" arrivalPos="489.60" arrivalSpeed="15.39" duration="91.00" routeLength="994.90" waitingTime="15.00" waitingCount="1" stopTime="0.00" timeLoss="26.17" rerouteNo="0" devices="tripinfo_flow_off_W2E.8 routing_flow_off_W2E.8 emissions_flow_off_W2E.8" vType="car" speedFactor="1.11" vaporized="">
        <emissions CO_abs="1427.23" CO2_abs="238491.67" HC_abs="9.54" PMx_abs="22.83" NOx_abs="83.98" fuel_abs="77315.80" electricity_abs="0.00"/>
    </tripinfo>
    <tripinfo id="flow_off_W2E.11" depart="190.00" departLane="W2C_0" departPos="5.10" departSpeed="0.00" departDelay="0.00" arrival="271.00" arrivalLane="C2E_0" arrivalPos="489.60" arrivalSpeed="14.29" duration="81.00" routeLength="994.90" waitingTime="1.00" waitingCount="1" stopTime="0.00" timeLoss="13.20" rerouteNo="0" devices="tripinfo_flow_off_W2E.11 routing_flow_off_W2E.11 emissions_flow_off_W2E.11" vType="car" speedFactor="1.06" vaporized="">
        <emissions CO_abs="1184.83" CO2_abs="208016.60" HC_abs="7.94" PMx_abs="23.03" NOx_abs="72.15" fuel_abs="67436.15" electricity_abs="0.00"/>
    </tripinfo>
    <tripinfo id="flow_off_W2E.9" depart="179.00" departLane="W2C_0" departPos="5.10" departSpeed="0.00" departDelay="1.00" arrival="273.00" arrivalLane="C2E_0" arrivalPos="489.60" arrivalSpeed="12.06" duration="94.00" routeLength="994.90" waitingTime="7.00" waitingCount="1" stopTime="0.00" timeLoss="18.16" rerouteNo="0" devices="tripinfo_flow_off_W2E.9 routing_flow_off_W2E.9 emissions_flow_off_W2E.9" vType="car" speedFactor="0.95" vaporized="">
        <emissions CO_abs="985.94" CO2_abs="210607.49" HC_abs="6.61" PMx_abs="21.75" NOx_abs="72.75" fuel_abs="68276.30" electricity_abs="0.00"/>
    </tripinfo>
    <tripinfo id="flow_off_W2E.10" depart="185.00" departLane="W2C_0" departPos="12.10" departSpeed="0.00" departDelay="0.00" arrival="276.00" arrivalLane="C2E_1" arrivalPos="489.60" arrivalSpeed="13.73" duration="91.00" routeLength="987.90" waitingTime="1.00" waitingCount="1" stopTime="0.00" timeLoss="19.02" rerouteNo="0" devices="tripinfo_flow_off_W2E.10 routing_flow_off_W2E.10 emissions_flow_off_W2E.10" vType="bus" speedFactor="1.00" vaporized="">
        <emissions CO_abs="225.99" CO2_abs="1207587.50" HC_abs="20.45" PMx_abs="131.81" NOx_abs="434.03" fuel_abs="388078.74" electricity_abs="0.00"/>
    </tripinfo>
    <tripinfo id="flow_off_N2S.12" depart="209.00" departLane="N2C_0" departPos="5.10" departSpeed="0.00" departDelay="5.00" arrival="280.00" arrivalLane="C2S_0" arrivalPos="489.60" arrivalSpeed="14.92" duration="71.00" routeLength="994.90" waitingTime="0.00" waitingCount="0" stopTime="0.00" timeLoss="6.68" rerouteNo="0" devices="tripinfo_flow_off_N2S.12 routing_flow_off_N2S.12 emissions_flow_off_N2S.12" vType="car" speedFactor="1.12" vaporized="">
        <emissions CO_abs="1313.08" CO2_abs="196326.72" HC_abs="8.82" PMx_abs="24.26" NOx_abs="69.64" fuel_abs="63646.54" electricity_abs="0.00"/>
    </tripinfo>
    <tripinfo id="flow_off_W2E.12" depart="193.00" departLane="W2C_0" departPos="5.10" departSpeed="0.00" departDelay="2.00" arrival="281.00" arrivalLane="C2E_0" arrivalPos="489.60" arrivalSpeed="10.90" duration="88.00" routeLength="994.90" waitingTime="0.00" waitingCount="0" stopTime="0.00" timeLoss="5.89" rerouteNo="0" devices="tripinfo_flow_off_W2E.12 routing_flow_off_W2E.12 emissions_flow_off_W2E.12" vType="car" speedFactor="0.87" vaporized="">
        <emissions CO_abs="841.37" CO2_abs="184065.76" HC_abs="5.64" PMx_abs="21.18" NOx_abs="63.71" fuel_abs="59671.88" electricity_abs="0.00"/>
    </tripinfo>
    <tripinfo id="flow_off_N2S.11" depart="204.00" departLane="N2C_0" departPos="12.10" departSpeed="0.00" departDelay="3.00" arrival="287.00" arrivalLane="C2S_0" arrivalPos="489.60" arrivalSpeed="13.39" duration="83.00" routeLength="987.90" waitingTime="0.00" waitingCount="0" stopTime="0.00" timeLoss="11.09" rerouteNo="0" devices="tripinfo_flow_off_N2S.11 routing_flow_off_N2S.11 emissions_flow_off_N2S.11" vType="bus" speedFactor="1.00" vaporized="">
        <emissions CO_abs="207.04" CO2_abs="1136138.65" HC_abs="19.73" PMx_abs="129.21" NOx_abs="425.17" fuel_abs="365116.10" electricity_abs="0.00"/>
    </tripinfo>
    <tripinfo id="flow_off_S2N.10" depart="216.00" departLane="S2C_0" departPos="5.10" departSpeed="0.00" departDelay="0.00" arrival="287.00" arrivalLane="C2N_0" arrivalPos="489.60" arrivalSpeed="15.21" duration="71.00" routeLength="994.90" waitingTime="0.00" waitingCount="0" stopTime="0.00" timeLoss="6.19" rerouteNo="0" devices="tripinfo_flow_off_S2N.10 routing_flow_off_S2N.10 emissions_flow_off_S2N.10" vType="car" speedFactor="1.11" vaporized="">
        <emissions CO_abs="1280.56" CO2_abs="184428.60" HC_abs="8.58" PMx_abs="21.83" NOx_abs="65.51" fuel_abs="59789.25" electricity_abs="0.00"/>
    </tripinfo>
    <tripinfo id="flow_off_N2S.10" depart="198.00" departLane="N2C_0" departPos="12.10" departSpeed="0.00" departDelay="0.00" arrival="291.00" arrivalLane="C2S_0" arrivalPos="489.60" arrivalSpeed="13.81" duration="93.00" routeLength="987.90" waitingTime="3.00" waitingCount="1" stopTime="0.00" timeLoss="21.33" rerouteNo="0" devices="tripinfo_flow_off_N2S.10 routing_flow_off_N2S.10 emissions_flow_off_N2S.10" vType="bus" speedFactor="1.00" vaporized="">
        <emissions CO_abs="243.41" CO2_abs="1252769.89" HC_abs="21.96" PMx_abs="147.26" NOx_abs="478.49" fuel_abs="402597.56" electricity_abs="0.00"/>
    </tripinfo>
    <tripinfo id="flow_off_N2S.13" depart="212.00" departLane="N2C_0" departPos="5.10" departSpeed="0.00" departDelay="3.00" arrival="296.00" arrivalLane="C2S_0" arrivalPos="489.60" arrivalSpeed="12.28" duration="84.00" routeLength="994.90" waitingTime="0.00" waitingCount="0" stopTime="0.00" timeLoss="7.38" rerouteNo="0" devices="tripinfo_flow_off_N2S.13 routing_flow_off_N2S.13 emissions_flow_off_N2S.13" vType="car" speedFactor="0.94" vaporized="">
        <emissions CO_abs="968.20" CO2_abs="178475.23" HC_abs="6.47" PMx_abs="19.41" NOx_abs="61.87" fuel_abs="57859.34" electricity_abs="0.00"/>
    </tripinfo>
    <tripinfo id="flow_off_E2W.6" depart="204.00" departLane="E2C_0" departPos="2.10" departSpeed="0.00" departDelay="0.00" arrival="302.00" arrivalLane="C2W_0" arrivalPos="489.60" arrivalSpeed="12.98" duration="98.00" routeLength="997.90" waitingTime="14.00" waitingCount="1" stopTime="0.00" timeLoss="26.63" rerouteNo="0" devices="tripinfo_flow_off_E2W.6 routing_flow_off_E2W.6 emissions_flow_off_E2W.6" vType="moto" speedFactor="1.01" vaporized="">
        <emissions CO_abs="3871.21" CO2_abs="145106.54" HC_abs="1812.87" PMx_abs="37.19" NOx_abs="179.74" fuel_abs="47051.92" electricity_abs="0.00"/>
    </tripinfo>
    <tripinfo id="flow_off_W2E.13" depart="201.00" departLane="W2C_0" departPos="12.10" departSpeed="0.00" departDelay="0.00" arrival="306.00" arrivalLane="C2E_0" arrivalPos="489.60" arrivalSpeed="13.42" duration="105.00" routeLength="987.90" waitingTime="15.00" waitingCount="1" stopTime="0.00" timeLoss="33.03" rerouteNo="0" devices="tripinfo_flow_off_W2E.13 routing_flow_off_W2E.13 emissions_flow_off_W2E.13" vType="bus" speedFactor="1.00" vaporized="">
        <emissions CO_abs="256.59" CO2_abs="1243691.53" HC_abs="22.25" PMx_abs="154.17" NOx_abs="498.96" fuel_abs="399681.41" electricity_abs="0.00"/>
    </tripinfo>