<?xml version="1.0" encoding="UTF-8"?>

<!-- generated on 2026-05-02T14:35:35.543371+07:00 by Eclipse SUMO libsumo 1.26.0
<libsumoConfiguration xmlns:xsi="http://www.w3.org/2001/XMLSchema-instance" xsi:noNamespaceSchemaLocation="http://sumo.dlr.de/xsd/libsumoConfiguration.xsd">

    <input>
        <net-file value="sumo/network.net.xml"/>
        <route-files value="sumo/routes.rou.xml"/>
        <additional-files value="sumo/tls.add.xml,sumo/traffic.add.xml"/>
    </input>

    <output>
        <tripinfo-output value="sumo/tripinfo_rl.xml"/>
        <tripinfo-output.write-unfinished value="true"/>
    </output>

    <time>
        <begin value="0"/>
        <end value="7200"/>
    </time>

    <processing>
        <time-to-teleport value="300"/>
        <waiting-time-memory value="10000"/>
    </processing>

    <report>
        <verbose value="false"/>
        <no-warnings value="true"/>
        <no-step-log value="true"/>
    </report>

    <emissions>
        <device.emissions.probability value="1.0"/>
    </emissions>

    <random_number>
        <seed value="42"/>
    </random_number>

</libsumoConfiguration>
-->

<tripinfos xmlns:xsi="http://www.w3.org/2001/XMLSchema-instance" xsi:noNamespaceSchemaLocation="http://sumo.dlr.de/xsd/tripinfo_file.xsd">
    <tripinfo id="flow_off_N2S.0" depart="5.00" departLane="N2C_0" departPos="2.10" departSpeed="0.00" departDelay="0.00" arrival="74.00" arrivalLane="C2S_0" arrivalPos="489.60" arrivalSpeed="15.20" duration="69.00" routeLength="997.90" waitingTime="0.00" waitingCount="0" stopTime="0.00" timeLoss="6.37" rerouteNo="0" devices="tripinfo_flow_off_N2S.0 routing_flow_off_N2S.0 emissions_flow_off_N2S.0" vType="moto" speedFactor="1.16" vaporized="">
        <emissions CO_abs="5223.41" CO2_abs="114006.25" HC_abs="1304.55" PMx_abs="25.86" NOx_abs="187.60" fuel_abs="36966.95" electricity_abs="0.00"/>
    </tripinfo>
    <tripinfo id="flow_off_S2N.0" depart="9.00" departLane="S2C_0" departPos="12.10" departSpeed="0.00" departDelay="0.00" arrival="90.00" arrivalLane="C2N_0" arrivalPos="489.60" arrivalSpeed="13.88" duration="81.00" routeLength="987.90" waitingTime="0.00" waitingCount="0" stopTime="0.00" timeLoss="9.10" rerouteNo="0" devices="tripinfo_flow_off_S2N.0 routing_flow_off_S2N.0 emissions_flow_off_S2N.0" vType="bus" speedFactor="1.00" vaporized="">
        <emissions CO_abs="195.13" CO2_abs="1040914.89" HC_abs="18.77" PMx_abs="127.16" NOx_abs="413.41" fuel_abs="334512.84" electricity_abs="0.00"/>
    </tripinfo>
    <tripinfo id="flow_off_S2N.2" depart="20.00" departLane="S2C_0" departPos="5.10" departSpeed="0.00" departDelay="2.00" arrival="93.00" arrivalLane="C2N_0" arrivalPos="489.60" arrivalSpeed="14.67" duration="73.00" routeLength="994.90" waitingTime="0.00" waitingCount="0" stopTime="0.00" timeLoss="7.10" rerouteNo="0" devices="tripinfo_flow_off_S2N.2 routing_flow_off_S2N.2 emissions_flow_off_S2N.2" vType="car" speedFactor="1.09" vaporized="">
        <emissions CO_abs="1145.81" CO2_abs="179179.76" HC_abs="7.69" PMx_abs="21.97" NOx_abs="63.46" fuel_abs="58087.74" electricity_abs="0.00"/>
    </tripinfo>
    <tripinfo id="flow_off_S2N.1" depart="16.00" departLane="S2C_0" departPos="12.10" departSpeed="0.00" departDelay="0.00" arrival="96.00" arrivalLane="C2N_0" arrivalPos="489.60" arrivalSpeed="13.72" duration="80.00" routeLength="987.90" waitingTime="0.00" waitingCount="0" stopTime="0.00" timeLoss="8.58" rerouteNo="0" devices="tripinfo_flow_off_S2N.1 routing_flow_off_S2N.1 emissions_flow_off_S2N.1" vType="bus" speedFactor="1.00" vaporized="">
        <emissions CO_abs="192.16" CO2_abs="1023944.73" HC_abs="18.48" PMx_abs="125.72" NOx_abs="408.55" fuel_abs="329059.10" electricity_abs="0.00"/>
    </tripinfo>
    <tripinfo id="flow_off_N2S.1" depart="21.00" departLane="N2C_0" departPos="2.10" departSpeed="0.00" departDelay="0.00" arrival="100.00" arrivalLane="C2S_0" arrivalPos="489.60" arrivalSpeed="12.49" duration="79.00" routeLength="997.90" waitingTime="0.00" waitingCount="0" stopTime="0.00" timeLoss="6.85" rerouteNo="0" devices="tripinfo_flow_off_N2S.1 routing_flow_off_N2S.1 emissions_flow_off_N2S.1" vType="moto" speedFactor="1.00" vaporized="">
        <emissions CO_abs="3742.88" CO2_abs="109157.32" HC_abs="1295.87" PMx_abs="26.09" NOx_abs="159.91" fuel_abs="35394.83" electricity_abs="0.00"/>
    </tripinfo>
    <tripinfo id="flow_off_N2S.2" depart="29.00" departLane="N2C_0" departPos="5.10" departSpeed="0.00" departDelay="0.00" arrival="113.00" arrivalLane="C2S_0" arrivalPos="489.60" arrivalSpeed="12.20" duration="84.00" routeLength="994.90" waitingTime="0.00" waitingCount="0" stopTime="0.00" timeLoss="7.23" rerouteNo="0" devices="tripinfo_flow_off_N2S.2 routing_flow_off_N2S.2 emissions_flow_off_N2S.2" vType="car" speedFactor="0.94" vaporized="">
        <emissions CO_abs="885.05" CO2_abs="178638.60" HC_abs="5.93" PMx_abs="21.08" NOx_abs="62.26" fuel_abs="57912.43" electricity_abs="0.00"/>
    </tripinfo>
    <tripinfo id="flow_off_S2N.3" depart="34.00" departLane="S2C_0" departPos="5.10" departSpeed="0.00" departDelay="0.00" arrival="113.00" arrivalLane="C2N_0" arrivalPos="489.60" arrivalSpeed="13.73" duration="79.00" routeLength="994.90" waitingTime="0.00" waitingCount="0" stopTime="0.00" timeLoss="6.79" rerouteNo="0" devices="tripinfo_flow_off_S2N.3 routing_flow_off_S2N.3 emissions_flow_off_S2N.3" vType="car" speedFactor="0.99" vaporized="">
        <emissions CO_abs="956.93" CO2_abs="180560.18" HC_abs="6.43" PMx_abs="22.52" NOx_abs="63.33" fuel_abs="58535.39" electricity_abs="0.00"/>
    </tripinfo>
    <tripinfo id="flow_off_S2N.4" depart="37.00" departLane="S2C_0" departPos="5.10" departSpeed="0.00" departDelay="1.00" arrival="114.00" arrivalLane="C2N_1" arrivalPos="489.60" arrivalSpeed="13.04" duration="77.00" routeLength="994.90" waitingTime="0.00" waitingCount="0" stopTime="0.00" timeLoss="6.90" rerouteNo="0" devices="tripinfo_flow_off_S2N.4 routing_flow_off_S2N.4 emissions_flow_off_S2N.4" vType="car" speedFactor="1.02" vaporized="">
        <emissions CO_abs="1184.76" CO2_abs="186398.95" HC_abs="7.92" PMx_abs="20.34" NOx_abs="65.33" fuel_abs="60428.01" electricity_abs="0.00"/>
    </tripinfo>
    <tripinfo id="flow_off_N2S.3" depart="36.00" departLane="N2C_0" departPos="2.10" departSpeed="0.00" departDelay="0.00" arrival="127.00" arrivalLane="C2S_0" arrivalPos="489.60" arrivalSpeed="10.53" duration="91.00" routeLength="997.90" waitingTime="0.00" waitingCount="0" stopTime="0.00" timeLoss="8.67" rerouteNo="0" devices="tripinfo_flow_off_N2S.3 routing_flow_off_N2S.3 emissions_flow_off_N2S.3" vType="moto" speedFactor="0.88" vaporized="">
        <emissions CO_abs="2649.09" CO2_abs="104920.00" HC_abs="1283.18" PMx_abs="26.27" NOx_abs="135.46" fuel_abs="34021.02" electricity_abs="0.00"/>
    </tripinfo>
    <tripinfo id="flow_off_N2S.5" depart="52.00" departLane="N2C_0" departPos="5.10" departSpeed="0.00" departDelay="2.00" arrival="127.00" arrivalLane="C2S_1" arrivalPos="489.60" arrivalSpeed="14.33" duration="75.00" routeLength="994.90" waitingTime="0.00" waitingCount="0" stopTime="0.00" timeLoss="6.32" rerouteNo="0" devices="tripinfo_flow_off_N2S.5 routing_flow_off_N2S.5 emissions_flow_off_N2S.5" vType="car" speedFactor="1.05" vaporized="">
        <emissions CO_abs="1079.81" CO2_abs="180959.76" HC_abs="7.25" PMx_abs="22.58" NOx_abs="63.78" fuel_abs="58664.85" electricity_abs="0.00"/>
    </tripinfo>
    <tripinfo id="flow_off_N2S.4" depart="49.00" departLane="N2C_0" departPos="5.10" departSpeed="0.00" departDelay="0.00" arrival="129.00" arrivalLane="C2S_0" arrivalPos="489.60" arrivalSpeed="13.69" duration="80.00" routeLength="994.90" waitingTime="0.00" waitingCount="0" stopTime="0.00" timeLoss="6.91" rerouteNo="0" devices="tripinfo_flow_off_N2S.4 routing_flow_off_N2S.4 emissions_flow_off_N2S.4" vType="car" speedFactor="0.99" vaporized="">
        <emissions CO_abs="1021.76" CO2_abs="182787.58" HC_abs="6.85" PMx_abs="21.57" NOx_abs="63.97" fuel_abs="59257.41" electricity_abs="0.00"/>
    </tripinfo>
    <tripinfo id="flow_off_E2W.0" depart="14.00" departLane="E2C_0" departPos="2.10" departSpeed="0.00" departDelay="0.00" arrival="141.00" arrivalLane="C2W_0" arrivalPos="489.60" arrivalSpeed="12.67" duration="127.00" routeLength="997.90" waitingTime="47.00" waitingCount="1" stopTime="0.00" timeLoss="58.13" rerouteNo="0" devices="tripinfo_flow_off_E2W.0 routing_flow_off_E2W.0 emissions_flow_off_E2W.0" vType="moto" speedFactor="1.05" vaporized="">
        <emissions CO_abs="4268.23" CO2_abs="189000.14" HC_abs="2541.53" PMx_abs="51.85" NOx_abs="205.94" fuel_abs="61285.18" electricity_abs="0.00"/>
    </tripinfo>
    <tripinfo id="flow_off_W2E.2" depart="12.00" departLane="W2C_0" departPos="5.10" departSpeed="0.00" departDelay="2.00" arrival="142.00" arrivalLane="C2E_0" arrivalPos="489.60" arrivalSpeed="13.43" duration="130.00" routeLength="994.90" waitingTime="48.00" waitingCount="1" stopTime="0.00" timeLoss="59.86" rerouteNo="0" devices="tripinfo_flow_off_W2E.2 routing_flow_off_W2E.2 emissions_flow_off_W2E.2" vType="car" speedFactor="1.03" vaporized="">
        <emissions CO_abs="1203.15" CO2_abs="284866.33" HC_abs="8.06" PMx_abs="23.00" NOx_abs="102.63" fuel_abs="92350.37" electricity_abs="0.00"/>
    </tripinfo>
    <tripinfo id="flow_off_W2E.3" depart="24.00" departLane="W2C_0" departPos="5.10" departSpeed="0.00" departDelay="0.00" arrival="143.00" arrivalLane="C2E_1" arrivalPos="489.60" arrivalSpeed="14.07" duration="119.00" routeLength="994.90" waitingTime="38.00" waitingCount="1" stopTime="0.00" timeLoss="50.91" rerouteNo="0" devices="tripinfo_flow_off_W2E.3 routing_flow_off_W2E.3 emissions_flow_off_W2E.3" vType="car" speedFactor="1.05" vaporized="">
        <emissions CO_abs="1322.64" CO2_abs="271479.83" HC_abs="8.83" PMx_abs="21.38" NOx_abs="96.86" fuel_abs="88010.43" electricity_abs="0.00"/>
    </tripinfo>
    <tripinfo id="flow_off_W2E.0" depart="6.00" departLane="W2C_0" departPos="5.10" departSpeed="0.00" departDelay="0.00" arrival="144.00" arrivalLane="C2E_0" arrivalPos="489.60" arrivalSpeed="13.28" duration="138.00" routeLength="994.90" waitingTime="52.00" waitingCount="1" stopTime="0.00" timeLoss="64.22" rerouteNo="0" devices="tripinfo_flow_off_W2E.0 routing_flow_off_W2E.0 emissions_flow_off_W2E.0" vType="car" speedFactor="0.98" vaporized="">
        <emissions CO_abs="1197.11" CO2_abs="289654.72" HC_abs="7.99" PMx_abs="20.75" NOx_abs="103.91" fuel_abs="93902.72" electricity_abs="0.00"/>
    </tripinfo>
    <tripinfo id="flow_off_W2E.4" depart="47.00" departLane="W2C_0" departPos="5.10" departSpeed="0.00" departDelay="0.00" arrival="147.00" arrivalLane="C2E_1" arrivalPos="489.60" arrivalSpeed="14.85" duration="100.00" routeLength="994.90" waitingTime="19.00" waitingCount="1" stopTime="0.00" timeLoss="33.68" rerouteNo="0" devices="tripinfo_flow_off_W2E.4 routing_flow_off_W2E.4 emissions_flow_off_W2E.4" vType="car" speedFactor="1.10" vaporized="">
        <emissions CO_abs="1395.26" CO2_abs="250366.42" HC_abs="9.32" PMx_abs="22.60" NOx_abs="88.34" fuel_abs="81165.45" electricity_abs="0.00"/>
    </tripinfo>
    <tripinfo id="flow_off_W2E.1" depart="9.00" departLane="W2C_0" departPos="5.10" departSpeed="0.00" departDelay="1.00" arrival="148.00" arrivalLane="C2E_0" arrivalPos="489.60" arrivalSpeed="11.80" duration="139.00" routeLength="994.90" waitingTime="50.00" waitingCount="1" stopTime="0.00" timeLoss="61.48" rerouteNo="0" devices="tripinfo_flow_off_W2E.1 routing_flow_off_W2E.1 emissions_flow_off_W2E.1" vType="car" speedFactor="0.93" vaporized="">
        <emissions CO_abs="1052.83" CO2_abs="285978.68" HC_abs="7.03" PMx_abs="21.65" NOx_abs="102.33" fuel_abs="92711.02" electricity_abs="0.00"/>
    </tripinfo>
    <tripinfo id="flow_off_W2E.5" depart="62.00" departLane="W2C_0" departPos="2.10" departSpeed="0.00" departDelay="0.00" arrival="153.00" arrivalLane="C2E_0" arrivalPos="489.60" arrivalSpeed="11.46" duration="91.00" routeLength="997.90" waitingTime="0.00" waitingCount="0" stopTime="0.00" timeLoss="11.34" rerouteNo="0" devices="tripinfo_flow_off_W2E.5 routing_flow_off_W2E.5 emissions_flow_off_W2E.5" vType="moto" speedFactor="0.91" vaporized="">
        <emissions CO_abs="3114.39" CO2_abs="119579.03" HC_abs="1450.58" PMx_abs="29.57" NOx_abs="157.62" fuel_abs="38774.25" electricity_abs="0.00"/>
    </tripinfo>
    <tripinfo id="flow_off_E2W.2" depart="85.00" departLane="E2C_0" departPos="5.10" departSpeed="0.00" departDelay="0.00" arrival="158.00" arrivalLane="C2W_0" arrivalPos="489.60" arrivalSpeed="14.76" duration="73.00" routeLength="994.90" waitingTime="0.00" waitingCount="0" stopTime="0.00" timeLoss="5.88" rerouteNo="0" devices="tripinfo_flow_off_E2W.2 routing_flow_off_E2W.2 emissions_flow_off_E2W.2" vType="car" speedFactor="1.08" vaporized="">
        <emissions CO_abs="1197.02" CO2_abs="187545.73" HC_abs="8.03" PMx_abs="23.47" NOx_abs="66.48" fuel_abs="60799.90" electricity_abs="0.00"/>
    </tripinfo>
    <tripinfo id="flow_off_E2W.1" depart="72.00" departLane="E2C_0" departPos="2.10" departSpeed="0.00" departDelay="0.00" arrival="167.00" arrivalLane="C2W_0" arrivalPos="489.60" arrivalSpeed="9.97" duration="95.00" routeLength="997.90" waitingTime="0.00" waitingCount="0" stopTime="0.00" timeLoss="9.40" rerouteNo="0" devices="tripinfo_flow_off_E2W.1 routing_flow_off_E2W.1 emissions_flow_off_E2W.1" vType="moto" speedFactor="0.85" vaporized="">
        <emissions CO_abs="2790.38" CO2_abs="117314.63" HC_abs="1437.59" PMx_abs="29.40" NOx_abs="149.29" fuel_abs="38040.05" electricity_abs="0.00"/>
    </tripinfo>
    <tripinfo id="flow_off_E2W.4" depart="118.00" departLane="E2C_0" departPos="5.10" departSpeed="0.00" departDelay="0.00" arrival="193.00" arrivalLane="C2W_0" arrivalPos="489.60" arrivalSpeed="14.56" duration="75.00" routeLength="994.90" waitingTime="0.00" waitingCount="0" stopTime="0.00" timeLoss="7.15" rerouteNo="0" devices="tripinfo_flow_off_E2W.4 routing_flow_off_E2W.4 emissions_flow_off_E2W.4" vType="car" speedFactor="1.06" vaporized="">
        <emissions CO_abs="1157.97" CO2_abs="182933.05" HC_abs="7.76" PMx_abs="21.54" NOx_abs="64.54" fuel_abs="59304.48" electricity_abs="0.00"/>
    </tripinfo>
    <tripinfo id="flow_off_E2W.3" depart="102.00" departLane="E2C_0" departPos="5.10" departSpeed="0.00" departDelay="0.00" arrival="208.00" arrivalLane="C2W_0" arrivalPos="489.60" arrivalSpeed="9.12" duration="106.00" routeLength="994.90" waitingTime="0.00" waitingCount="0" stopTime="0.00" timeLoss="8.56" rerouteNo="0" devices="tripinfo_flow_off_E2W.3 routing_flow_off_E2W.3 emissions_flow_off_E2W.3" vType="car" speedFactor="0.74" vaporized="">
        <emissions CO_abs="625.09" CO2_abs="192306.75" HC_abs="4.18" PMx_abs="20.15" NOx_abs="65.93" fuel_abs="62343.62" electricity_abs="0.00"/>
    </tripinfo>
    <tripinfo id="flow_off_S2N.6" depart="107.00" departLane="S2C_0" departPos="5.10" departSpeed="0.00" departDelay="0.00" arrival="221.00" arrivalLane="C2N_0" arrivalPos="489.60" arrivalSpeed="14.16" duration="114.00" routeLength="994.90" waitingTime="33.00" waitingCount="1" stopTime="0.00" timeLoss="46.09" rerouteNo="0" devices="tripinfo_flow_off_S2N.6 routing_flow_off_S2N.6 emissions_flow_off_S2N.6" vType="car" speedFactor="1.06" vaporized="">
        <emissions CO_abs="1335.10" CO2_abs="261741.86" HC_abs="8.91" PMx_abs="20.81" NOx_abs="93.52" fuel_abs="84853.38" electricity_abs="0.00"/>
    </tripinfo>
    <tripinfo id="flow_off_N2S.6" depart="64.00" departLane="N2C_0" departPos="5.10" departSpeed="0.00" departDelay="0.00" arrival="224.00" arrivalLane="C2S_0" arrivalPos="489.60" arrivalSpeed="12.85" duration="160.00" routeLength="994.90" waitingTime="74.00" waitingCount="1" stopTime="0.00" timeLoss="86.00" rerouteNo="0" devices="tripinfo_flow_off_N2S.6 routing_flow_off_N2S.6 emissions_flow_off_N2S.6" vType="car" speedFactor="0.97" vaporized="">
        <emissions CO_abs="1088.21" CO2_abs="317672.34" HC_abs="7.28" PMx_abs="21.34" NOx_abs="115.63" fuel_abs="102986.03" electricity_abs="0.00"/>
    </tripinfo>
    <tripinfo id="flow_off_S2N.8" depart="137.00" departLane="S2C_0" departPos="5.10" departSpeed="0.00" departDelay="0.00" arrival="225.00" arrivalLane="C2N_1" arrivalPos="489.60" arrivalSpeed="13.86" duration="88.00" routeLength="994.90" waitingTime="4.00" waitingCount="1" stopTime="0.00" timeLoss="16.86" rerouteNo="0" devices="tripinfo_flow_off_S2N.8 routing_flow_off_S2N.8 emissions_flow_off_S2N.8" vType="car" speedFactor="1.02" vaporized="">
        <emissions CO_abs="1124.35" CO2_abs="215193.35" HC_abs="7.54" PMx_abs="23.68" NOx_abs="74.31" fuel_abs="69762.88" electricity_abs="0.00"/>
    </tripinfo>
    <tripinfo id="flow_off_N2S.7" depart="84.00" departLane="N2C_0" departPos="5.10" departSpeed="0.00" departDelay="0.00" arrival="226.00" arrivalLane="C2S_1" arrivalPos="489.60" arrivalSpeed="11.86" duration="142.00" routeLength="994.90" waitingTime="50.00" waitingCount="1" stopTime="0.00" timeLoss="64.55" rerouteNo="0" devices="tripinfo_flow_off_N2S.7 routing_flow_off_N2S.7 emissions_flow_off_N2S.7" vType="car" speedFactor="0.93" vaporized="">
        <emissions CO_abs="1009.00" CO2_abs="283698.16" HC_abs="6.74" PMx_abs="21.33" NOx_abs="101.39" fuel_abs="91971.78" electricity_abs="0.00"/>
    </tripinfo>
    <tripinfo id="flow_off_N2S.8" depart="104.00" departLane="N2C_0" departPos="5.10" departSpeed="0.00" departDelay="0.00" arrival="226.00" arrivalLane="C2S_0" arrivalPos="489.60" arrivalSpeed="15.19" duration="122.00" routeLength="994.90" waitingTime="41.00" waitingCount="1" stopTime="0.00" timeLoss="59.27" rerouteNo="0" devices="tripinfo_flow_off_N2S.8 routing_flow_off_N2S.8 emissions_flow_off_N2S.8" vType="car" speedFactor="1.15" vaporized="">
        <emissions CO_abs="1460.81" CO2_abs="290841.65" HC_abs="9.76" PMx_abs="23.49" NOx_abs="104.48" fuel_abs="94287.33" electricity_abs="0.00"/>
    </tripinfo>
    <tripinfo id="flow_off_S2N.5" depart="74.00" departLane="S2C_0" departPos="2.10" departSpeed="0.00" departDelay="0.00" arrival="227.00" arrivalLane="C2N_0" arrivalPos="489.60" arrivalSpeed="12.40" duration="153.00" routeLength="997.90" waitingTime="62.00" waitingCount="1" stopTime="0.00" timeLoss="73.04" rerouteNo="0" devices="tripinfo_flow_off_S2N.5 routing_flow_off_S2N.5 emissions_flow_off_S2N.5" vType="moto" speedFactor="0.91" vaporized="">
        <emissions CO_abs="3266.51" CO2_abs="211819.71" HC_abs="2947.37" PMx_abs="60.72" NOx_abs="197.29" fuel_abs="68685.01" electricity_abs="0.00"/>
    </tripinfo>
    <tripinfo id="flow_off_S2N.7" depart="119.00" departLane="S2C_0" departPos="12.10" departSpeed="0.00" departDelay="0.00" arrival="228.00" arrivalLane="C2N_1" arrivalPos="489.60" arrivalSpeed="13.57" duration="109.00" routeLength="987.90" waitingTime="18.00" waitingCount="1" stopTime="0.00" timeLoss="37.64" rerouteNo="0" devices="tripinfo_flow_off_S2N.7 routing_flow_off_S2N.7 emissions_flow_off_S2N.7" vType="bus" speedFactor="1.00" vaporized="">
        <emissions CO_abs="264.95" CO2_abs="1268174.59" HC_abs="22.87" PMx_abs="158.35" NOx_abs="512.32" fuel_abs="407549.94" electricity_abs="0.00"/>
    </tripinfo>
    <tripinfo id="flow_off_N2S.9" depart="122.00" departLane="N2C_0" departPos="12.10" departSpeed="0.00" departDelay="0.00" arrival="228.00" arrivalLane="C2S_1" arrivalPos="489.60" arrivalSpeed="13.66" duration="106.00" routeLength="987.90" waitingTime="15.00" waitingCount="1" stopTime="0.00" timeLoss="34.70" rerouteNo="0" devices="tripinfo_flow_off_N2S.9 routing_flow_off_N2S.9 emissions_flow_off_N2S.9" vType="bus" speedFactor="1.00" vaporized="">
        <emissions CO_abs="252.73" CO2_abs="1232396.76" HC_abs="21.91" PMx_abs="149.64" NOx_abs="485.11" fuel_abs="396052.13" electricity_abs="0.00"/>
    </tripinfo>
    <tripinfo id="flow_off_N2S.10" depart="145.00" departLane="N2C_0" departPos="15.10" departSpeed="0.00" departDelay="0.00" arrival="230.00" arrivalLane="C2S_0" arrivalPos="489.60" arrivalSpeed="13.31" duration="85.00" routeLength="984.90" waitingTime="0.00" waitingCount="0" stopTime="0.00" timeLoss="11.47" rerouteNo="0" devices="tripinfo_flow_off_N2S.10 routing_flow_off_N2S.10 emissions_flow_off_N2S.10" vType="truck" speedFactor="0.98" vaporized="">
        <emissions CO_abs="110.19" CO2_abs="430762.28" HC_abs="9.64" PMx_abs="121.35" NOx_abs="217.48" fuel_abs="138443.50" electricity_abs="0.00"/>
    </tripinfo>
    <tripinfo id="flow_off_N2S.11" depart="156.00" departLane="N2C_0" departPos="5.10" departSpeed="0.00" departDelay="0.00" arrival="241.00" arrivalLane="C2S_0" arrivalPos="489.60" arrivalSpeed="11.93" duration="85.00" routeLength="994.90" waitingTime="0.00" waitingCount="0" stopTime="0.00" timeLoss="6.67" rerouteNo="0" devices="tripinfo_flow_off_N2S.11 routing_flow_off_N2S.11 emissions_flow_off_N2S.11" vType="car" speedFactor="0.92" vaporized="">
        <emissions CO_abs="902.73" CO2_abs="179032.78" HC_abs="6.04" PMx_abs="20.49" NOx_abs="62.12" fuel_abs="58040.19" electricity_abs="0.00"/>
    </tripinfo>
    <tripinfo id="flow_off_S2N.9" depart="164.00" departLane="S2C_0" departPos="2.10" departSpeed="0.00" departDelay="0.00" arrival="247.00" arrivalLane="C2N_0" arrivalPos="489.60" arrivalSpeed="12.26" duration="83.00" routeLength="997.90" waitingTime="0.00" waitingCount="0" stopTime="0.00" timeLoss="7.41" rerouteNo="0" devices="tripinfo_flow_off_S2N.9 routing_flow_off_S2N.9 emissions_flow_off_S2N.9" vType="moto" speedFactor="0.96" vaporized="">
        <emissions CO_abs="3524.65" CO2_abs="110594.96" HC_abs="1313.87" PMx_abs="26.32" NOx_abs="159.99" fuel_abs="35860.96" electricity_abs="0.00"/>
    </tripinfo>
    <tripinfo id="flow_off_S2N.10" depart="169.00" departLane="S2C_0" departPos="2.10" departSpeed="0.00" departDelay="0.00" arrival="247.00" arrivalLane="C2N_1" arrivalPos="489.60" arrivalSpeed="12.71" duration="78.00" routeLength="997.90" waitingTime="0.00" waitingCount="0" stopTime="0.00" timeLoss="6.89" rerouteNo="0" devices="tripinfo_flow_off_S2N.10 routing_flow_off_S2N.10 emissions_flow_off_S2N.10" vType="moto" speedFactor="1.02" vaporized="">
        <emissions CO_abs="4370.11" CO2_abs="121082.97" HC_abs="1432.90" PMx_abs="28.66" NOx_abs="181.91" fuel_abs="39261.74" electricity_abs="0.00"/>
    </tripinfo>
    <tripinfo id="flow_off_N2S.12" depart="166.00" departLane="N2C_0" departPos="5.10" departSpeed="0.00" departDelay="0.00" arrival="252.00" arrivalLane="C2S_0" arrivalPos="489.60" arrivalSpeed="12.56" duration="86.00" routeLength="994.90" waitingTime="0.00" waitingCount="0" stopTime="0.00" timeLoss="6.94" rerouteNo="0" devices="tripinfo_flow_off_N2S.12 routing_flow_off_N2S.12 emissions_flow_off_N2S.12" vType="car" speedFactor="0.91" vaporized="">
        <emissions CO_abs="874.58" CO2_abs="185007.91" HC_abs="5.86" PMx_abs="21.66" NOx_abs="64.27" fuel_abs="59977.31" electricity_abs="0.00"/>
    </tripinfo>
    <tripinfo id="flow_off_S2N.11" depart="173.00" departLane="S2C_0" departPos="12.10" departSpeed="0.00" departDelay="1.00" arrival="254.00" arrivalLane="C2N_0" arrivalPos="489.60" arrivalSpeed="13.53" duration="81.00" routeLength="987.90" waitingTime="0.00" waitingCount="0" stopTime="0.00" timeLoss="9.03" rerouteNo="0" devices="tripinfo_flow_off_S2N.11 routing_flow_off_S2N.11 emissions_flow_off_S2N.11" vType="bus" speedFactor="1.00" vaporized="">
        <emissions CO_abs="199.76" CO2_abs="1034513.23" HC_abs="19.20" PMx_abs="134.34" NOx_abs="431.50" fuel_abs="332454.16" electricity_abs="0.00"/>
    </tripinfo>
    <tripinfo id="flow_off_N2S.13" depart="169.00" departLane="N2C_0" departPos="5.10" departSpeed="0.00" departDelay="2.00" arrival="255.00" arrivalLane="C2S_0" arrivalPos="489.60" arrivalSpeed="11.62" duration="86.00" routeLength="994.90" waitingTime="0.00" waitingCount="0" stopTime="0.00" timeLoss="6.74" rerouteNo="0" devices="tripinfo_flow_off_N2S.13 routing_flow_off_N2S.13 emissions_flow_off_N2S.13" vType="car" speedFactor="0.91" vaporized="">
        <emissions CO_abs="964.73" CO2_abs="189689.30" HC_abs="6.45" PMx_abs="20.98" NOx_abs="65.67" fuel_abs="61494.87" electricity_abs="0.00"/>
    </tripinfo>
    <tripinfo id="flow_off_N2S.14" depart="178.00" departLane="N2C_0" departPos="12.10" departSpeed="0.00" departDelay="0.00" arrival="258.00" arrivalLane="C2S_0" arrivalPos="489.60" arrivalSpeed="13.55" duration="80.00" routeLength="987.90" waitingTime="0.00" waitingCount="0" stopTime="0.00" timeLoss="8.70" rerouteNo="0" devices="tripinfo_flow_off_N2S.14 routing_flow_off_N2S.14 emissions_flow_off_N2S.14" vType="bus" speedFactor="1.00" vaporized="">
        <emissions CO_abs="195.46" CO2_abs="1031819.35" HC_abs="18.81" PMx_abs="129.17" NOx_abs="417.91" fuel_abs="331589.25" electricity_abs="0.00"/>
    </tripinfo>
    <tripinfo id="flow_off_S2N.12" depart="179.00" departLane="S2C_0" departPos="12.10" departSpeed="0.00" departDelay="5.00" arrival="260.00" arrivalLane="C2N_0" arrivalPos="489.60" arrivalSpeed="13.87" duration="81.00" routeLength="987.90" waitingTime="0.00" waitingCount="0" stopTime="0.00" timeLoss="9.05" rerouteNo="0" devices="tripinfo_flow_off_S2N.12 routing_flow_off_S2N.12 emissions_flow_off_S2N.12" vType="bus" speedFactor="1.00" vaporized="">
        <emissions CO_abs="207.44" CO2_abs="1061503.54" HC_abs="19.99" PMx_abs="141.81" NOx_abs="453.28" fuel_abs="341127.13" electricity_abs="0.00"/>
    </tripinfo>
    <tripinfo id="flow_off_W2E.7" depart="145.00" departLane="W2C_0" departPos="5.10" departSpeed="0.00" departDelay="0.00" arrival="267.00" arrivalLane="C2E_0" arrivalPos="489.60" arrivalSpeed="14.48" duration="122.00" routeLength="994.90" waitingTime="45.00" waitingCount="1" stopTime="0.00" timeLoss="57.46" rerouteNo="0" devices="tripinfo_flow_off_W2E.7 routing_flow_off_W2E.7 emissions_flow_off_W2E.7" vType="car" speedFactor="1.12" vaporized="">
        <emissions CO_abs="1415.26" CO2_abs="281069.14" HC_abs="9.46" PMx_abs="22.08" NOx_abs="101.27" fuel_abs="91119.18" electricity_abs="0.00"/>
    </tripinfo>
    <tripinfo id="flow_off_E2W.6" depart="145.00" departLane="E2C_0" departPos="5.10" departSpeed="0.00" departDelay="0.00" arrival="268.00" arrivalLane="C2W_0" arrivalPos="489.60" arrivalSpeed="14.23" duration="123.00" routeLength="994.90" waitingTime="43.00" waitingCount="1" stopTime="0.00" timeLoss="56.82" rerouteNo="0" devices="tripinfo_flow_off_E2W.6 routing_flow_off_E2W.6 emissions_flow_off_E2W.6" vType="car" speedFactor="1.09" vaporized="">
        <emissions CO_abs="1334.84" CO2_abs="277857.43" HC_abs="8.92" PMx_abs="22.02" NOx_abs="99.93" fuel_abs="90078.04" electricity_abs="0.00"/>
    </tripinfo>
    <tripinfo id="flow_off_W2E.10" depart="191.00" departLane="W2C_0" departPos="5.10" departSpeed="0.00" departDelay="0.00" arrival="269.00" arrivalLane="C2E_1" arrivalPos="489.60" arrivalSpeed="14.72" duration="78.00" routeLength="994.90" waitingTime="0.00" waitingCount="0" stopTime="0.00" timeLoss="13.14" rerouteNo="0" devices="tripinfo_flow_off_W2E.10 routing_flow_off_W2E.10 emissions_flow_off_W2E.10" vType="car" speedFactor="1.12" vaporized="">
        <emissions CO_abs="1475.74" CO2_abs="222003.33" HC_abs="9.86" PMx_abs="23.19" NOx_abs="77.20" fuel_abs="71970.31" electricity_abs="0.00"/>
    </tripinfo>
    <tripinfo id="flow_off_W2E.8" depart="153.00" departLane="W2C_0" departPos="5.10" departSpeed="0.00" departDelay="0.00" arrival="270.00" arrivalLane="C2E_1" arrivalPos="489.60" arrivalSpeed="16.72" duration="117.00" routeLength="994.90" waitingTime="40.00" waitingCount="1" stopTime="0.00" timeLoss="58.20" rerouteNo="0" devices="tripinfo_flow_off_W2E.8 routing_flow_off_W2E.8 emissions_flow_off_W2E.8" vType="car" speedFactor="1.23" vaporized="">
        <emissions CO_abs="1617.53" CO2_abs="290734.50" HC_abs="10.81" PMx_abs="23.82" NOx_abs="104.92" fuel_abs="94252.46" electricity_abs="0.00"/>
    </tripinfo>
    <tripinfo id="flow_off_E2W.5" depart="142.00" departLane="E2C_0" departPos="5.10" departSpeed="0.00" departDelay="0.00" arrival="271.00" arrivalLane="C2W_0" arrivalPos="489.60" arrivalSpeed="13.16" duration="129.00" routeLength="994.90" waitingTime="45.00" waitingCount="1" stopTime="0.00" timeLoss="57.36" rerouteNo="0" devices="tripinfo_flow_off_E2W.5 routing_flow_off_E2W.5 emissions_flow_off_E2W.5" vType="car" speedFactor="1.00" vaporized="">
        <emissions CO_abs="1085.97" CO2_abs="272536.29" HC_abs="7.27" PMx_abs="22.26" NOx_abs="97.68" fuel_abs="88353.21" electricity_abs="0.00"/>
    </tripinfo>
    <tripinfo id="flow_off_E2W.8" depart="173.00" departLane="E2C_0" departPos="5.10" departSpeed="0.00" departDelay="0.00" arrival="272.00" arrivalLane="C2W_1" arrivalPos="489.60" arrivalSpeed="13.81" duration="99.00" routeLength="994.90" waitingTime="17.00" waitingCount="1" stopTime="0.00" timeLoss="29.13" rerouteNo="0" devices="tripinfo_flow_off_E2W.8 routing_flow_off_E2W.8 emissions_flow_off_E2W.8" vType="car" speedFactor="1.03" vaporized="">
        <emissions CO_abs="1276.16" CO2_abs="238317.30" HC_abs="8.52" PMx_abs="21.64" NOx_abs="83.81" fuel_abs="77259.32" electricity_abs="0.00"/>
    </tripinfo>
    <tripinfo id="flow_off_E2W.7" depart="167.00" departLane="E2C_0" departPos="2.10" departSpeed="0.00" departDelay="0.00" arrival="273.00" arrivalLane="C2W_0" arrivalPos="489.60" arrivalSpeed="13.17" duration="106.00" routeLength="997.90" waitingTime="25.00" waitingCount="1" stopTime="0.00" timeLoss="38.43" rerouteNo="0" devices="tripinfo_flow_off_E2W.7 routing_flow_off_E2W.7 emissions_flow_off_E2W.7" vType="moto" speedFactor="1.07" vaporized="">
        <emissions CO_abs="4720.89" CO2_abs="170779.31" HC_abs="2164.39" PMx_abs="43.37" NOx_abs="217.02" fuel_abs="55376.38" electricity_abs="0.00"/>
    </tripinfo>