<?xml version="1.0" encoding="UTF-8"?>

<!-- generated on 2026-05-03T10:41:21.000244+07:00 by Eclipse SUMO libsumo 1.26.0
<libsumoConfiguration xmlns:xsi="http://www.w3.org/2001/XMLSchema-instance" xsi:noNamespaceSchemaLocation="http://sumo.dlr.de/xsd/libsumoConfiguration.xsd">

    <input>
        <net-file value="sumo/network.net.xml"/>
        <route-files value="sumo/routes.rou.xml"/>
        <additional-files value="sumo/tls.add.xml,sumo/traffic.add.xml"/>
    </input>

    <output>
        <tripinfo-output value="C:\Users\DELL\Downloads\project\runs\exp_20260503_095943\evaluation\tripinfo_rl.xml"/>
        <tripinfo-output.write-unfinished value="true"/>
    </output>

    <time>
        <begin value="0"/>
        <end value="7200"/>
    </time>

    <processing>
        <time-to-teleport value="300"/>
        <waiting-time-memory value="10000"/>
    </processing>

    <report>
        <verbose value="false"/>
        <no-warnings value="true"/>
        <no-step-log value="true"/>
    </report>

    <emissions>
        <device.emissions.probability value="1.0"/>
    </emissions>

    <random_number>
        <seed value="45"/>
    </random_number>

</libsumoConfiguration>
-->

<tripinfos xmlns:xsi="http://www.w3.org/2001/XMLSchema-instance" xsi:noNamespaceSchemaLocation="http://sumo.dlr.de/xsd/tripinfo_file.xsd">
    <tripinfo id="flow_off_S2N.0" depart="9.00" departLane="S2C_0" departPos="5.10" departSpeed="0.00" departDelay="0.00" arrival="95.00" arrivalLane="C2N_0" arrivalPos="489.60" arrivalSpeed="13.59" duration="86.00" routeLength="994.90" waitingTime="2.00" waitingCount="1" stopTime="0.00" timeLoss="13.57" rerouteNo="0" devices="tripinfo_flow_off_S2N.0 routing_flow_off_S2N.0 emissions_flow_off_S2N.0" vType="car" speedFactor="1.00" vaporized="">
        <emissions CO_abs="1171.89" CO2_abs="215424.63" HC_abs="7.84" PMx_abs="22.67" NOx_abs="74.10" fuel_abs="69837.78" electricity_abs="0.00"/>
    </tripinfo>
    <tripinfo id="flow_off_N2S.0" depart="3.00" departLane="N2C_0" departPos="5.10" departSpeed="0.00" departDelay="0.00" arrival="96.00" arrivalLane="C2S_0" arrivalPos="489.60" arrivalSpeed="13.09" duration="93.00" routeLength="994.90" waitingTime="8.00" waitingCount="1" stopTime="0.00" timeLoss="19.92" rerouteNo="0" devices="tripinfo_flow_off_N2S.0 routing_flow_off_N2S.0 emissions_flow_off_N2S.0" vType="car" speedFactor="0.99" vaporized="">
        <emissions CO_abs="1097.37" CO2_abs="219290.35" HC_abs="7.34" PMx_abs="22.53" NOx_abs="76.01" fuel_abs="71091.12" electricity_abs="0.00"/>
    </tripinfo>
    <tripinfo id="flow_off_W2E.3" depart="44.00" departLane="W2C_0" departPos="5.10" departSpeed="0.00" departDelay="0.00" arrival="110.00" arrivalLane="C2E_1" arrivalPos="489.60" arrivalSpeed="16.18" duration="66.00" routeLength="994.90" waitingTime="0.00" waitingCount="0" stopTime="0.00" timeLoss="7.20" rerouteNo="0" devices="tripinfo_flow_off_W2E.3 routing_flow_off_W2E.3 emissions_flow_off_W2E.3" vType="car" speedFactor="1.23" vaporized="">
        <emissions CO_abs="1471.76" CO2_abs="192783.46" HC_abs="9.89" PMx_abs="24.15" NOx_abs="69.42" fuel_abs="62497.76" electricity_abs="0.00"/>
    </tripinfo>
    <tripinfo id="flow_off_W2E.1" depart="21.00" departLane="W2C_0" departPos="5.10" departSpeed="0.00" departDelay="0.00" arrival="113.00" arrivalLane="C2E_0" arrivalPos="489.60" arrivalSpeed="11.90" duration="92.00" routeLength="994.90" waitingTime="3.00" waitingCount="1" stopTime="0.00" timeLoss="15.38" rerouteNo="0" devices="tripinfo_flow_off_W2E.1 routing_flow_off_W2E.1 emissions_flow_off_W2E.1" vType="car" speedFactor="0.94" vaporized="">
        <emissions CO_abs="985.06" CO2_abs="202473.94" HC_abs="6.58" PMx_abs="21.13" NOx_abs="69.18" fuel_abs="65639.39" electricity_abs="0.00"/>
    </tripinfo>
    <tripinfo id="flow_off_W2E.0" depart="12.00" departLane="W2C_0" departPos="2.10" departSpeed="0.00" departDelay="0.00" arrival="116.00" arrivalLane="C2E_0" arrivalPos="489.60" arrivalSpeed="11.00" duration="104.00" routeLength="997.90" waitingTime="9.00" waitingCount="1" stopTime="0.00" timeLoss="23.32" rerouteNo="0" devices="tripinfo_flow_off_W2E.0 routing_flow_off_W2E.0 emissions_flow_off_W2E.0" vType="moto" speedFactor="0.89" vaporized="">
        <emissions CO_abs="3079.76" CO2_abs="140522.11" HC_abs="1759.87" PMx_abs="36.28" NOx_abs="165.08" fuel_abs="45565.40" electricity_abs="0.00"/>
    </tripinfo>
    <tripinfo id="flow_off_W2E.2" depart="39.00" departLane="W2C_0" departPos="2.10" departSpeed="0.00" departDelay="0.00" arrival="116.00" arrivalLane="C2E_1" arrivalPos="489.60" arrivalSpeed="12.56" duration="77.00" routeLength="997.90" waitingTime="0.00" waitingCount="0" stopTime="0.00" timeLoss="7.33" rerouteNo="0" devices="tripinfo_flow_off_W2E.2 routing_flow_off_W2E.2 emissions_flow_off_W2E.2" vType="moto" speedFactor="1.04" vaporized="">
        <emissions CO_abs="4323.60" CO2_abs="117733.12" HC_abs="1401.13" PMx_abs="28.30" NOx_abs="175.13" fuel_abs="38175.62" electricity_abs="0.00"/>
    </tripinfo>
    <tripinfo id="flow_off_N2S.1" depart="39.00" departLane="N2C_0" departPos="2.10" departSpeed="0.00" departDelay="0.00" arrival="120.00" arrivalLane="C2S_0" arrivalPos="489.60" arrivalSpeed="17.04" duration="81.00" routeLength="997.90" waitingTime="11.00" waitingCount="1" stopTime="0.00" timeLoss="22.01" rerouteNo="0" devices="tripinfo_flow_off_N2S.1 routing_flow_off_N2S.1 emissions_flow_off_N2S.1" vType="moto" speedFactor="1.24" vaporized="">
        <emissions CO_abs="6360.00" CO2_abs="146601.89" HC_abs="1715.49" PMx_abs="33.46" NOx_abs="230.75" fuel_abs="47536.14" electricity_abs="0.00"/>
    </tripinfo>
    <tripinfo id="flow_off_S2N.2" depart="42.00" departLane="S2C_0" departPos="5.10" departSpeed="0.00" departDelay="0.00" arrival="124.00" arrivalLane="C2N_1" arrivalPos="489.60" arrivalSpeed="14.14" duration="82.00" routeLength="994.90" waitingTime="4.00" waitingCount="1" stopTime="0.00" timeLoss="15.29" rerouteNo="0" devices="tripinfo_flow_off_S2N.2 routing_flow_off_S2N.2 emissions_flow_off_S2N.2" vType="car" speedFactor="1.07" vaporized="">
        <emissions CO_abs="1254.17" CO2_abs="214477.84" HC_abs="8.40" PMx_abs="22.93" NOx_abs="74.26" fuel_abs="69530.80" electricity_abs="0.00"/>
    </tripinfo>
    <tripinfo id="flow_off_S2N.1" depart="28.00" departLane="S2C_0" departPos="5.10" departSpeed="0.00" departDelay="0.00" arrival="125.00" arrivalLane="C2N_0" arrivalPos="489.60" arrivalSpeed="13.85" duration="97.00" routeLength="994.90" waitingTime="17.00" waitingCount="1" stopTime="0.00" timeLoss="30.23" rerouteNo="0" devices="tripinfo_flow_off_S2N.1 routing_flow_off_S2N.1 emissions_flow_off_S2N.1" vType="car" speedFactor="1.08" vaporized="">
        <emissions CO_abs="1331.35" CO2_abs="241193.00" HC_abs="8.91" PMx_abs="23.09" NOx_abs="85.40" fuel_abs="78191.62" electricity_abs="0.00"/>
    </tripinfo>
    <tripinfo id="flow_off_S2N.3" depart="44.00" departLane="S2C_0" departPos="2.10" departSpeed="0.00" departDelay="0.00" arrival="130.00" arrivalLane="C2N_0" arrivalPos="489.60" arrivalSpeed="12.72" duration="86.00" routeLength="997.90" waitingTime="0.00" waitingCount="0" stopTime="0.00" timeLoss="13.85" rerouteNo="0" devices="tripinfo_flow_off_S2N.3 routing_flow_off_S2N.3 emissions_flow_off_S2N.3" vType="moto" speedFactor="1.00" vaporized="">
        <emissions CO_abs="4065.14" CO2_abs="136096.36" HC_abs="1646.40" PMx_abs="33.38" NOx_abs="184.32" fuel_abs="44130.07" electricity_abs="0.00"/>
    </tripinfo>
    <tripinfo id="flow_off_N2S.3" depart="56.00" departLane="N2C_0" departPos="5.10" departSpeed="0.00" departDelay="0.00" arrival="133.00" arrivalLane="C2S_0" arrivalPos="489.60" arrivalSpeed="14.00" duration="77.00" routeLength="994.90" waitingTime="0.00" waitingCount="0" stopTime="0.00" timeLoss="6.80" rerouteNo="0" devices="tripinfo_flow_off_N2S.3 routing_flow_off_N2S.3 emissions_flow_off_N2S.3" vType="car" speedFactor="1.03" vaporized="">
        <emissions CO_abs="1075.46" CO2_abs="181264.55" HC_abs="7.21" PMx_abs="21.74" NOx_abs="63.71" fuel_abs="58763.63" electricity_abs="0.00"/>
    </tripinfo>
    <tripinfo id="flow_off_N2S.2" depart="52.00" departLane="N2C_0" departPos="5.10" departSpeed="0.00" departDelay="0.00" arrival="135.00" arrivalLane="C2S_0" arrivalPos="489.60" arrivalSpeed="12.14" duration="83.00" routeLength="994.90" waitingTime="0.00" waitingCount="0" stopTime="0.00" timeLoss="6.53" rerouteNo="0" devices="tripinfo_flow_off_N2S.2 routing_flow_off_N2S.2 emissions_flow_off_N2S.2" vType="car" speedFactor="0.94" vaporized="">
        <emissions CO_abs="938.98" CO2_abs="180526.57" HC_abs="6.29" PMx_abs="20.98" NOx_abs="62.83" fuel_abs="58524.45" electricity_abs="0.00"/>
    </tripinfo>
    <tripinfo id="flow_off_S2N.7" depart="87.00" departLane="S2C_0" departPos="5.10" departSpeed="0.00" departDelay="0.00" arrival="161.00" arrivalLane="C2N_1" arrivalPos="489.60" arrivalSpeed="14.83" duration="74.00" routeLength="994.90" waitingTime="0.00" waitingCount="0" stopTime="0.00" timeLoss="9.87" rerouteNo="0" devices="tripinfo_flow_off_S2N.7 routing_flow_off_S2N.7 emissions_flow_off_S2N.7" vType="car" speedFactor="1.12" vaporized="">
        <emissions CO_abs="1384.24" CO2_abs="203056.39" HC_abs="9.27" PMx_abs="22.86" NOx_abs="71.77" fuel_abs="65828.11" electricity_abs="0.00"/>
    </tripinfo>
    <tripinfo id="flow_off_S2N.5" depart="66.00" departLane="S2C_0" departPos="5.10" departSpeed="0.00" departDelay="0.00" arrival="163.00" arrivalLane="C2N_0" arrivalPos="489.60" arrivalSpeed="11.71" duration="97.00" routeLength="994.90" waitingTime="5.00" waitingCount="1" stopTime="0.00" timeLoss="18.09" rerouteNo="0" devices="tripinfo_flow_off_S2N.5 routing_flow_off_S2N.5 emissions_flow_off_S2N.5" vType="car" speedFactor="0.92" vaporized="">
        <emissions CO_abs="1019.56" CO2_abs="216079.80" HC_abs="6.81" PMx_abs="21.21" NOx_abs="74.47" fuel_abs="70050.23" electricity_abs="0.00"/>
    </tripinfo>
    <tripinfo id="flow_off_S2N.4" depart="53.00" departLane="S2C_0" departPos="5.10" departSpeed="0.00" departDelay="0.00" arrival="165.00" arrivalLane="C2N_0" arrivalPos="489.60" arrivalSpeed="10.97" duration="112.00" routeLength="994.90" waitingTime="16.00" waitingCount="1" stopTime="0.00" timeLoss="28.26" rerouteNo="0" devices="tripinfo_flow_off_S2N.4 routing_flow_off_S2N.4 emissions_flow_off_S2N.4" vType="car" speedFactor="0.86" vaporized="">
        <emissions CO_abs="873.63" CO2_abs="224858.13" HC_abs="5.83" PMx_abs="20.05" NOx_abs="77.70" fuel_abs="72896.27" electricity_abs="0.00"/>
    </tripinfo>
    <tripinfo id="flow_off_S2N.6" depart="81.00" departLane="S2C_0" departPos="2.10" departSpeed="0.00" departDelay="0.00" arrival="165.00" arrivalLane="C2N_1" arrivalPos="489.60" arrivalSpeed="14.11" duration="84.00" routeLength="997.90" waitingTime="0.00" waitingCount="0" stopTime="0.00" timeLoss="13.62" rerouteNo="0" devices="tripinfo_flow_off_S2N.6 routing_flow_off_S2N.6 emissions_flow_off_S2N.6" vType="moto" speedFactor="1.03" vaporized="">
        <emissions CO_abs="4210.65" CO2_abs="127436.83" HC_abs="1492.53" PMx_abs="29.43" NOx_abs="190.20" fuel_abs="41321.86" electricity_abs="0.00"/>
    </tripinfo>
    <tripinfo id="flow_off_W2E.5" depart="87.00" departLane="W2C_0" departPos="5.10" departSpeed="0.00" departDelay="0.00" arrival="173.00" arrivalLane="C2E_0" arrivalPos="489.60" arrivalSpeed="13.78" duration="86.00" routeLength="994.90" waitingTime="6.00" waitingCount="1" stopTime="0.00" timeLoss="17.73" rerouteNo="0" devices="tripinfo_flow_off_W2E.5 routing_flow_off_W2E.5 emissions_flow_off_W2E.5" vType="car" speedFactor="1.06" vaporized="">
        <emissions CO_abs="1208.15" CO2_abs="212106.25" HC_abs="8.10" PMx_abs="22.05" NOx_abs="73.80" fuel_abs="68762.04" electricity_abs="0.00"/>
    </tripinfo>
    <tripinfo id="flow_off_W2E.6" depart="94.00" departLane="W2C_0" departPos="2.10" departSpeed="0.00" departDelay="0.00" arrival="174.00" arrivalLane="C2E_1" arrivalPos="489.60" arrivalSpeed="15.07" duration="80.00" routeLength="997.90" waitingTime="3.00" waitingCount="1" stopTime="0.00" timeLoss="17.46" rerouteNo="0" devices="tripinfo_flow_off_W2E.6 routing_flow_off_W2E.6 emissions_flow_off_W2E.6" vType="moto" speedFactor="1.17" vaporized="">
        <emissions CO_abs="5388.38" CO2_abs="139174.99" HC_abs="1614.35" PMx_abs="32.09" NOx_abs="212.47" fuel_abs="45128.05" electricity_abs="0.00"/>
    </tripinfo>
    <tripinfo id="flow_off_E2W.0" depart="91.00" departLane="E2C_0" departPos="5.10" departSpeed="0.00" departDelay="0.00" arrival="175.00" arrivalLane="C2W_0" arrivalPos="489.60" arrivalSpeed="13.18" duration="84.00" routeLength="994.90" waitingTime="0.00" waitingCount="0" stopTime="0.00" timeLoss="10.34" rerouteNo="0" devices="tripinfo_flow_off_E2W.0 routing_flow_off_E2W.0 emissions_flow_off_E2W.0" vType="car" speedFactor="0.97" vaporized="">
        <emissions CO_abs="1028.98" CO2_abs="195378.89" HC_abs="6.88" PMx_abs="21.18" NOx_abs="66.91" fuel_abs="63339.23" electricity_abs="0.00"/>
    </tripinfo>
    <tripinfo id="flow_off_E2W.1" depart="95.00" departLane="E2C_0" departPos="5.10" departSpeed="0.00" departDelay="0.00" arrival="176.00" arrivalLane="C2W_1" arrivalPos="489.60" arrivalSpeed="12.59" duration="81.00" routeLength="994.90" waitingTime="0.00" waitingCount="0" stopTime="0.00" timeLoss="6.30" rerouteNo="0" devices="tripinfo_flow_off_E2W.1 routing_flow_off_E2W.1 emissions_flow_off_E2W.1" vType="car" speedFactor="0.97" vaporized="">
        <emissions CO_abs="964.44" CO2_abs="174053.58" HC_abs="6.46" PMx_abs="19.78" NOx_abs="60.51" fuel_abs="56425.92" electricity_abs="0.00"/>
    </tripinfo>
    <tripinfo id="flow_off_W2E.4" depart="70.00" departLane="W2C_0" departPos="2.10" departSpeed="0.00" departDelay="0.00" arrival="178.00" arrivalLane="C2E_0" arrivalPos="489.60" arrivalSpeed="11.57" duration="108.00" routeLength="997.90" waitingTime="18.00" waitingCount="1" stopTime="0.00" timeLoss="28.89" rerouteNo="0" devices="tripinfo_flow_off_W2E.4 routing_flow_off_W2E.4 emissions_flow_off_W2E.4" vType="moto" speedFactor="0.91" vaporized="">
        <emissions CO_abs="3112.27" CO2_abs="142659.38" HC_abs="1797.50" PMx_abs="36.73" NOx_abs="167.36" fuel_abs="46258.40" electricity_abs="0.00"/>
    </tripinfo>
    <tripinfo id="flow_off_S2N.9" depart="106.00" departLane="S2C_0" departPos="5.10" departSpeed="0.00" departDelay="0.00" arrival="189.00" arrivalLane="C2N_1" arrivalPos="489.60" arrivalSpeed="13.75" duration="83.00" routeLength="994.90" waitingTime="3.00" waitingCount="1" stopTime="0.00" timeLoss="16.14" rerouteNo="0" devices="tripinfo_flow_off_S2N.9 routing_flow_off_S2N.9 emissions_flow_off_S2N.9" vType="car" speedFactor="1.07" vaporized="">
        <emissions CO_abs="1258.21" CO2_abs="211710.87" HC_abs="8.41" PMx_abs="21.78" NOx_abs="73.58" fuel_abs="68633.71" electricity_abs="0.00"/>
    </tripinfo>
    <tripinfo id="flow_off_S2N.8" depart="91.00" departLane="S2C_0" departPos="5.10" departSpeed="0.00" departDelay="0.00" arrival="190.00" arrivalLane="C2N_0" arrivalPos="489.60" arrivalSpeed="13.64" duration="99.00" routeLength="994.90" waitingTime="17.00" waitingCount="1" stopTime="0.00" timeLoss="28.43" rerouteNo="0" devices="tripinfo_flow_off_S2N.8 routing_flow_off_S2N.8 emissions_flow_off_S2N.8" vType="car" speedFactor="1.02" vaporized="">
        <emissions CO_abs="1215.18" CO2_abs="236642.06" HC_abs="8.12" PMx_abs="22.09" NOx_abs="82.83" fuel_abs="76716.34" electricity_abs="0.00"/>
    </tripinfo>
    <tripinfo id="flow_off_S2N.10" depart="109.00" departLane="S2C_0" departPos="2.10" departSpeed="0.00" departDelay="0.00" arrival="192.00" arrivalLane="C2N_1" arrivalPos="489.60" arrivalSpeed="14.10" duration="83.00" routeLength="997.90" waitingTime="1.00" waitingCount="1" stopTime="0.00" timeLoss="15.18" rerouteNo="0" devices="tripinfo_flow_off_S2N.10 routing_flow_off_S2N.10 emissions_flow_off_S2N.10" vType="moto" speedFactor="1.07" vaporized="">
        <emissions CO_abs="4537.61" CO2_abs="129646.34" HC_abs="1490.70" PMx_abs="29.52" NOx_abs="193.80" fuel_abs="42038.26" electricity_abs="0.00"/>
    </tripinfo>
    <tripinfo id="flow_off_E2W.2" depart="117.00" departLane="E2C_0" departPos="5.10" departSpeed="0.00" departDelay="0.00" arrival="205.00" arrivalLane="C2W_0" arrivalPos="489.60" arrivalSpeed="14.42" duration="88.00" routeLength="994.90" waitingTime="8.00" waitingCount="1" stopTime="0.00" timeLoss="19.61" rerouteNo="0" devices="tripinfo_flow_off_E2W.2 routing_flow_off_E2W.2 emissions_flow_off_E2W.2" vType="car" speedFactor="1.06" vaporized="">
        <emissions CO_abs="1299.91" CO2_abs="221466.90" HC_abs="8.68" PMx_abs="21.66" NOx_abs="77.40" fuel_abs="71796.52" electricity_abs="0.00"/>
    </tripinfo>
    <tripinfo id="flow_off_W2E.7" depart="105.00" departLane="W2C_0" departPos="5.10" departSpeed="0.00" departDelay="0.00" arrival="207.00" arrivalLane="C2E_0" arrivalPos="489.60" arrivalSpeed="13.71" duration="102.00" routeLength="994.90" waitingTime="17.00" waitingCount="1" stopTime="0.00" timeLoss="29.21" rerouteNo="0" devices="tripinfo_flow_off_W2E.7 routing_flow_off_W2E.7 emissions_flow_off_W2E.7" vType="car" speedFactor="1.00" vaporized="">
        <emissions CO_abs="1173.64" CO2_abs="236105.37" HC_abs="7.85" PMx_abs="21.79" NOx_abs="82.90" fuel_abs="76542.32" electricity_abs="0.00"/>
    </tripinfo>
    <tripinfo id="flow_off_N2S.5" depart="139.00" departLane="N2C_0" departPos="15.10" departSpeed="0.00" departDelay="0.00" arrival="219.00" arrivalLane="C2S_0" arrivalPos="489.60" arrivalSpeed="13.97" duration="80.00" routeLength="984.90" waitingTime="0.00" waitingCount="0" stopTime="0.00" timeLoss="11.25" rerouteNo="0" devices="tripinfo_flow_off_N2S.5 routing_flow_off_N2S.5 emissions_flow_off_N2S.5" vType="truck" speedFactor="1.04" vaporized="">
        <emissions CO_abs="114.50" CO2_abs="464815.10" HC_abs="10.24" PMx_abs="130.47" NOx_abs="238.03" fuel_abs="149390.00" electricity_abs="0.00"/>
    </tripinfo>
    <tripinfo id="flow_off_S2N.11" depart="123.00" departLane="S2C_0" departPos="2.10" departSpeed="0.00" departDelay="0.00" arrival="221.00" arrivalLane="C2N_0" arrivalPos="489.60" arrivalSpeed="14.09" duration="98.00" routeLength="997.90" waitingTime="16.00" waitingCount="1" stopTime="0.00" timeLoss="28.38" rerouteNo="0" devices="tripinfo_flow_off_S2N.11 routing_flow_off_S2N.11 emissions_flow_off_S2N.11" vType="moto" speedFactor="1.04" vaporized="">
        <emissions CO_abs="4164.54" CO2_abs="146141.18" HC_abs="1810.44" PMx_abs="36.84" NOx_abs="187.14" fuel_abs="47387.31" electricity_abs="0.00"/>
    </tripinfo>
    <tripinfo id="flow_off_N2S.6" depart="153.00" departLane="N2C_0" departPos="5.10" departSpeed="0.00" departDelay="0.00" arrival="225.00" arrivalLane="C2S_1" arrivalPos="489.60" arrivalSpeed="14.61" duration="72.00" routeLength="994.90" waitingTime="0.00" waitingCount="0" stopTime="0.00" timeLoss="6.25" rerouteNo="0" devices="tripinfo_flow_off_N2S.6 routing_flow_off_N2S.6 emissions_flow_off_N2S.6" vType="car" speedFactor="1.09" vaporized="">
        <emissions CO_abs="1252.86" CO2_abs="186103.18" HC_abs="8.39" PMx_abs="22.18" NOx_abs="66.00" fuel_abs="60332.16" electricity_abs="0.00"/>
    </tripinfo>
    <tripinfo id="flow_off_N2S.4" depart="127.00" departLane="N2C_0" departPos="2.10" departSpeed="0.00" departDelay="0.00" arrival="226.00" arrivalLane="C2S_0" arrivalPos="489.60" arrivalSpeed="12.38" duration="99.00" routeLength="997.90" waitingTime="9.00" waitingCount="1" stopTime="0.00" timeLoss="20.99" rerouteNo="0" devices="tripinfo_flow_off_N2S.4 routing_flow_off_N2S.4 emissions_flow_off_N2S.4" vType="moto" speedFactor="0.93" vaporized="">
        <emissions CO_abs="3625.58" CO2_abs="143641.85" HC_abs="1758.55" PMx_abs="35.82" NOx_abs="182.20" fuel_abs="46576.81" electricity_abs="0.00"/>
    </tripinfo>
    <tripinfo id="flow_off_E2W.4" depart="160.00" departLane="E2C_0" departPos="2.10" departSpeed="0.00" departDelay="0.00" arrival="234.00" arrivalLane="C2W_0" arrivalPos="489.60" arrivalSpeed="14.40" duration="74.00" routeLength="997.90" waitingTime="0.00" waitingCount="0" stopTime="0.00" timeLoss="10.76" rerouteNo="0" devices="tripinfo_flow_off_E2W.4 routing_flow_off_E2W.4 emissions_flow_off_E2W.4" vType="moto" speedFactor="1.15" vaporized="">
        <emissions CO_abs="5162.62" CO2_abs="121552.43" HC_abs="1369.03" PMx_abs="26.67" NOx_abs="198.52" fuel_abs="39413.61" electricity_abs="0.00"/>
    </tripinfo>
    <tripinfo id="flow_off_E2W.3" depart="146.00" departLane="E2C_0" departPos="5.10" departSpeed="0.00" departDelay="0.00" arrival="241.00" arrivalLane="C2W_0" arrivalPos="489.60" arrivalSpeed="12.85" duration="95.00" routeLength="994.90" waitingTime="6.00" waitingCount="1" stopTime="0.00" timeLoss="19.47" rerouteNo="0" devices="tripinfo_flow_off_E2W.3 routing_flow_off_E2W.3 emissions_flow_off_E2W.3" vType="car" speedFactor="0.96" vaporized="">
        <emissions CO_abs="1024.17" CO2_abs="213716.41" HC_abs="6.85" PMx_abs="21.47" NOx_abs="73.51" fuel_abs="69284.09" electricity_abs="0.00"/>
    </tripinfo>
    <tripinfo id="flow_off_W2E.8" depart="131.00" departLane="W2C_0" departPos="5.10" departSpeed="0.00" departDelay="0.00" arrival="248.00" arrivalLane="C2E_0" arrivalPos="489.60" arrivalSpeed="11.53" duration="117.00" routeLength="994.90" waitingTime="16.00" waitingCount="1" stopTime="0.00" timeLoss="30.31" rerouteNo="0" devices="tripinfo_flow_off_W2E.8 routing_flow_off_W2E.8 emissions_flow_off_W2E.8" vType="car" speedFactor="0.84" vaporized="">
        <emissions CO_abs="869.38" CO2_abs="242344.93" HC_abs="5.81" PMx_abs="22.03" NOx_abs="83.81" fuel_abs="78565.35" electricity_abs="0.00"/>
    </tripinfo>
    <tripinfo id="flow_off_N2S.8" depart="186.00" departLane="N2C_0" departPos="2.10" departSpeed="0.00" departDelay="0.00" arrival="270.00" arrivalLane="C2S_0" arrivalPos="489.60" arrivalSpeed="12.40" duration="84.00" routeLength="997.90" waitingTime="3.00" waitingCount="1" stopTime="0.00" timeLoss="13.94" rerouteNo="0" devices="tripinfo_flow_off_N2S.8 routing_flow_off_N2S.8 emissions_flow_off_N2S.8" vType="moto" speedFactor="1.03" vaporized="">
        <emissions CO_abs="4346.39" CO2_abs="132594.89" HC_abs="1561.78" PMx_abs="31.32" NOx_abs="190.69" fuel_abs="42994.52" electricity_abs="0.00"/>
    </tripinfo>
    <tripinfo id="flow_off_S2N.12" depart="176.00" departLane="S2C_0" departPos="2.10" departSpeed="0.00" departDelay="0.00" arrival="272.00" arrivalLane="C2N_0" arrivalPos="489.60" arrivalSpeed="11.56" duration="96.00" routeLength="997.90" waitingTime="10.00" waitingCount="1" stopTime="0.00" timeLoss="21.83" rerouteNo="0" devices="tripinfo_flow_off_S2N.12 routing_flow_off_S2N.12 emissions_flow_off_S2N.12" vType="moto" speedFactor="0.97" vaporized="">
        <emissions CO_abs="3773.65" CO2_abs="142237.56" HC_abs="1755.78" PMx_abs="35.93" NOx_abs="179.89" fuel_abs="46121.55" electricity_abs="0.00"/>
    </tripinfo>
    <tripinfo id="flow_off_S2N.14" depart="193.00" departLane="S2C_0" departPos="2.10" departSpeed="0.00" departDelay="0.00" arrival="272.00" arrivalLane="C2N_1" arrivalPos="489.60" arrivalSpeed="13.99" duration="79.00" routeLength="997.90" waitingTime="0.00" waitingCount="0" stopTime="0.00" timeLoss="8.16" rerouteNo="0" devices="tripinfo_flow_off_S2N.14 routing_flow_off_S2N.14 emissions_flow_off_S2N.14" vType="moto" speedFactor="1.02" vaporized="">
        <emissions CO_abs="4083.88" CO2_abs="117561.74" HC_abs="1406.71" PMx_abs="28.34" NOx_abs="172.02" fuel_abs="38120.05" electricity_abs="0.00"/>
    </tripinfo>
    <tripinfo id="flow_off_S2N.13" depart="191.00" departLane="S2C_0" departPos="5.10" departSpeed="0.00" departDelay="0.00" arrival="275.00" arrivalLane="C2N_0" arrivalPos="489.60" arrivalSpeed="12.88" duration="84.00" routeLength="994.90" waitingTime="0.00" waitingCount="0" stopTime="0.00" timeLoss="6.69" rerouteNo="0" devices="tripinfo_flow_off_S2N.13 routing_flow_off_S2N.13 emissions_flow_off_S2N.13" vType="car" speedFactor="0.93" vaporized="">
        <emissions CO_abs="915.63" CO2_abs="184440.72" HC_abs="6.14" PMx_abs="21.95" NOx_abs="64.33" fuel_abs="59793.43" electricity_abs="0.00"/>
    </tripinfo>
    <tripinfo id="flow_off_N2S.7" depart="178.00" departLane="N2C_0" departPos="5.10" departSpeed="0.00" departDelay="0.00" arrival="277.00" arrivalLane="C2S_0" arrivalPos="489.60" arrivalSpeed="11.67" duration="99.00" routeLength="994.90" waitingTime="3.00" waitingCount="1" stopTime="0.00" timeLoss="14.99" rerouteNo="0" devices="tripinfo_flow_off_N2S.7 routing_flow_off_N2S.7 emissions_flow_off_N2S.7" vType="car" speedFactor="0.86" vaporized="">
        <emissions CO_abs="834.82" CO2_abs="211256.56" HC_abs="5.59" PMx_abs="22.16" NOx_abs="72.17" fuel_abs="68486.77" electricity_abs="0.00"/>
    </tripinfo>
    <tripinfo id="flow_off_S2N.15" depart="197.00" departLane="S2C_0" departPos="2.10" departSpeed="0.00" departDelay="0.00" arrival="280.00" arrivalLane="C2N_0" arrivalPos="489.60" arrivalSpeed="12.56" duration="83.00" routeLength="997.90" waitingTime="0.00" waitingCount="0" stopTime="0.00" timeLoss="7.75" rerouteNo="0" devices="tripinfo_flow_off_S2N.15 routing_flow_off_S2N.15 emissions_flow_off_S2N.15" vType="moto" speedFactor="0.96" vaporized="">
        <emissions CO_abs="3694.40" CO2_abs="117242.78" HC_abs="1400.41" PMx_abs="28.08" NOx_abs="168.55" fuel_abs="38016.57" electricity_abs="0.00"/>
    </tripinfo>
    <tripinfo id="flow_off_E2W.6" depart="187.00" departLane="E2C_0" departPos="12.10" departSpeed="0.00" departDelay="0.00" arrival="292.00" arrivalLane="C2W_0" arrivalPos="489.60" arrivalSpeed="13.35" duration="105.00" routeLength="987.90" waitingTime="14.00" waitingCount="1" stopTime="0.00" timeLoss="33.12" rerouteNo="0" devices="tripinfo_flow_off_E2W.6 routing_flow_off_E2W.6 emissions_flow_off_E2W.6" vType="bus" speedFactor="1.00" vaporized="">
        <emissions CO_abs="266.86" CO2_abs="1268971.53" HC_abs="23.36" PMx_abs="165.11" NOx_abs="528.88" fuel_abs="407803.94" electricity_abs="0.00"/>
    </tripinfo>
    <tripinfo id="flow_off_N2S.10" depart="210.00" departLane="N2C_0" departPos="2.10" departSpeed="0.00" departDelay="1.00" arrival="299.00" arrivalLane="C2S_0" arrivalPos="489.60" arrivalSpeed="14.01" duration="89.00" routeLength="997.90" waitingTime="12.00" waitingCount="1" stopTime="0.00" timeLoss="24.09" rerouteNo="0" devices="tripinfo_flow_off_N2S.10 routing_flow_off_N2S.10 emissions_flow_off_N2S.10" vType="moto" speedFactor="1.12" vaporized="">
        <emissions CO_abs="5060.44" CO2_abs="145557.99" HC_abs="1749.11" PMx_abs="35.17" NOx_abs="204.34" fuel_abs="47197.99" electricity_abs="0.00"/>
    </tripinfo>
    <tripinfo id="flow_off_E2W.5" depart="175.00" departLane="E2C_0" departPos="2.10" departSpeed="0.00" departDelay="0.00" arrival="300.00" arrivalLane="C2W_0" arrivalPos="489.60" arrivalSpeed="9.35" duration="125.00" routeLength="997.90" waitingTime="18.00" waitingCount="1" stopTime="0.00" timeLoss="30.85" rerouteNo="0" devices="tripinfo_flow_off_E2W.5 routing_flow_off_E2W.5 emissions_flow_off_E2W.5" vType="moto" speedFactor="0.77" vaporized="">
        <emissions CO_abs="2408.45" CO2_abs="158012.75" HC_abs="2059.55" PMx_abs="42.87" NOx_abs="160.37" fuel_abs="51237.15" electricity_abs="0.00"/>
    </tripinfo>
    <tripinfo id="flow_off_S2N.16" depart="211.00" departLane="S2C_0" departPos="5.10" departSpeed="0.00" departDelay="0.00" arrival="305.00" arrivalLane="C2N_0" arrivalPos="489.60" arrivalSpeed="12.68" duration="94.00" routeLength="994.90" waitingTime="7.00" waitingCount="1" stopTime="0.00" timeLoss="16.88" rerouteNo="0" devices="tripinfo_flow_off_S2N.16 routing_flow_off_S2N.16 emissions_flow_off_S2N.16" vType="car" speedFactor="0.93" vaporized="">
        <emissions CO_abs="1027.33" CO2_abs="210058.21" HC_abs="6.86" PMx_abs="20.41" NOx_abs="72.27" fuel_abs="68098.06" electricity_abs="0.00"/>
    </tripinfo>
    <tripinfo id="flow_off_N2S.9" depart="208.00" departLane="N2C_0" departPos="5.10" departSpeed="0.00" departDelay="0.00" arrival="307.00" arrivalLane="C2S_0" arrivalPos="489.60" arrivalSpeed="12.24" duration="99.00" routeLength="994.90" waitingTime="7.00" waitingCount="1" stopTime="0.00" timeLoss="19.25" rerouteNo="0" devices="tripinfo_flow_off_N2S.9 routing_flow_off_N2S.9 emissions_flow_off_N2S.9" vType="car" speedFactor="0.90" vaporized="">
        <emissions CO_abs="946.65" CO2_abs="215214.74" HC_abs="6.33" PMx_abs="21.07" NOx_abs="73.83" fuel_abs="69769.89" electricity_abs="0.00"/>
    </tripinfo>
    <tripinfo id="flow_off_E2W.7" depart="227.00" departLane="E2C_0" departPos="5.10" departSpeed="0.00" departDelay="0.00" arrival="313.00" arrivalLane="C2W_0" arrivalPos="489.60" arrivalSpeed="15.58" duration="86.00" routeLength="994.90" waitingTime="13.00" waitingCount="1" stopTime="0.00" timeLoss="25.74" rerouteNo="0" devices="tripinfo_flow_off_E2W.7 routing_flow_off_E2W.7 emissions_flow_off_E2W.7" vType="car" speedFactor="1.20" vaporized="">
        <emissions CO_abs="1591.09" CO2_abs="237794.56" HC_abs="10.65" PMx_abs="22.99" NOx_abs="84.30" fuel_abs="77089.68" electricity_abs="0.00"/>
    </tripinfo>
    <tripinfo id="flow_off_W2E.9" depart="254.00" departLane="W2C_0" departPos="2.10" departSpeed="0.00" departDelay="0.00" arrival="316.00" arrivalLane="C2E_0" arrivalPos="489.60" arrivalSpeed="16.57" duration="62.00" routeLength="997.90" waitingTime="0.00" waitingCount="0" stopTime="0.00" timeLoss="5.54" rerouteNo="0" devices="tripinfo_flow_off_W2E.9 routing_flow_off_W2E.9 emissions_flow_off_W2E.9" vType="moto" speedFactor="1.29" vaporized="">
        <emissions CO_abs="6428.06" CO2_abs="112589.53" HC_abs="1235.26" PMx_abs="24.27" NOx_abs="200.24" fuel_abs="36507.41" electricity_abs="0.00"/>
    </tripinfo>