<?xml version="1.0" encoding="UTF-8"?>

<!-- generated on 2026-05-03T10:41:13.835767+07:00 by Eclipse SUMO sumo 1.26.0
<sumoConfiguration xmlns:xsi="http://www.w3.org/2001/XMLSchema-instance" xsi:noNamespaceSchemaLocation="http://sumo.dlr.de/xsd/sumoConfiguration.xsd">

    <input>
        <net-file value="sumo/network.net.xml"/>
        <route-files value="sumo/routes.rou.xml"/>
        <additional-files value="sumo/tls_webster.add.xml,sumo/traffic.add.xml"/>
    </input>

    <output>
        <tripinfo-output value="C:\Users\DELL\Downloads\project\runs\exp_20260503_095943\evaluation\tripinfo_webster.xml"/>
        <tripinfo-output.write-unfinished value="true"/>
    </output>

    <time>
        <begin value="0"/>
        <end value="7200"/>
    </time>

    <processing>
        <time-to-teleport value="300"/>
        <waiting-time-memory value="10000"/>
    </processing>

    <report>
        <verbose value="false"/>
        <no-step-log value="true"/>
    </report>

    <emissions>
        <device.emissions.probability value="1.0"/>
    </emissions>

    <traci_server>
        <remote-port value="57523"/>
    </traci_server>

    <random_number>
        <seed value="45"/>
    </random_number>

</sumoConfiguration>
-->

<tripinfos xmlns:xsi="http://www.w3.org/2001/XMLSchema-instance" xsi:noNamespaceSchemaLocation="http://sumo.dlr.de/xsd/tripinfo_file.xsd">
    <tripinfo id="flow_off_W2E.0" depart="12.00" departLane="W2C_0" departPos="2.10" departSpeed="0.00" departDelay="0.00" arrival="102.00" arrivalLane="C2E_0" arrivalPos="489.60" arrivalSpeed="11.08" duration="90.00" routeLength="997.90" waitingTime="0.00" waitingCount="0" stopTime="0.00" timeLoss="8.82" rerouteNo="0" devices="tripinfo_flow_off_W2E.0 routing_flow_off_W2E.0 emissions_flow_off_W2E.0" vType="moto" speedFactor="0.89" vaporized="">
        <emissions CO_abs="2921.69" CO2_abs="112679.67" HC_abs="1390.19" PMx_abs="28.49" NOx_abs="146.17" fuel_abs="36537.18" electricity_abs="0.00"/>
    </tripinfo>
    <tripinfo id="flow_off_W2E.1" depart="21.00" departLane="W2C_0" departPos="5.10" departSpeed="0.00" departDelay="0.00" arrival="104.00" arrivalLane="C2E_0" arrivalPos="489.60" arrivalSpeed="11.86" duration="83.00" routeLength="994.90" waitingTime="0.00" waitingCount="0" stopTime="0.00" timeLoss="6.85" rerouteNo="0" devices="tripinfo_flow_off_W2E.1 routing_flow_off_W2E.1 emissions_flow_off_W2E.1" vType="car" speedFactor="0.94" vaporized="">
        <emissions CO_abs="937.95" CO2_abs="180152.35" HC_abs="6.29" PMx_abs="20.84" NOx_abs="62.75" fuel_abs="58403.12" electricity_abs="0.00"/>
    </tripinfo>
    <tripinfo id="flow_off_N2S.1" depart="39.00" departLane="N2C_0" departPos="2.10" departSpeed="0.00" departDelay="0.00" arrival="111.00" arrivalLane="C2S_0" arrivalPos="489.60" arrivalSpeed="16.73" duration="72.00" routeLength="997.90" waitingTime="1.00" waitingCount="1" stopTime="0.00" timeLoss="13.34" rerouteNo="0" devices="tripinfo_flow_off_N2S.1 routing_flow_off_N2S.1 emissions_flow_off_N2S.1" vType="moto" speedFactor="1.24" vaporized="">
        <emissions CO_abs="6025.42" CO2_abs="130030.88" HC_abs="1446.42" PMx_abs="28.44" NOx_abs="214.10" fuel_abs="42162.82" electricity_abs="0.00"/>
    </tripinfo>
    <tripinfo id="flow_off_S2N.1" depart="28.00" departLane="S2C_0" departPos="5.10" departSpeed="0.00" departDelay="0.00" arrival="115.00" arrivalLane="C2N_0" arrivalPos="489.60" arrivalSpeed="14.16" duration="87.00" routeLength="994.90" waitingTime="9.00" waitingCount="1" stopTime="0.00" timeLoss="20.64" rerouteNo="0" devices="tripinfo_flow_off_S2N.1 routing_flow_off_S2N.1 emissions_flow_off_S2N.1" vType="car" speedFactor="1.08" vaporized="">
        <emissions CO_abs="1320.88" CO2_abs="218807.46" HC_abs="8.83" PMx_abs="20.87" NOx_abs="76.64" fuel_abs="70934.33" electricity_abs="0.00"/>
    </tripinfo>
    <tripinfo id="flow_off_N2S.0" depart="3.00" departLane="N2C_0" departPos="5.10" departSpeed="0.00" departDelay="0.00" arrival="118.00" arrivalLane="C2S_0" arrivalPos="489.60" arrivalSpeed="13.48" duration="115.00" routeLength="994.90" waitingTime="31.00" waitingCount="1" stopTime="0.00" timeLoss="42.53" rerouteNo="0" devices="tripinfo_flow_off_N2S.0 routing_flow_off_N2S.0 emissions_flow_off_N2S.0" vType="car" speedFactor="0.99" vaporized="">
        <emissions CO_abs="1055.79" CO2_abs="249340.59" HC_abs="7.07" PMx_abs="22.22" NOx_abs="88.29" fuel_abs="80833.30" electricity_abs="0.00"/>
    </tripinfo>
    <tripinfo id="flow_off_S2N.0" depart="9.00" departLane="S2C_0" departPos="5.10" departSpeed="0.00" departDelay="0.00" arrival="118.00" arrivalLane="C2N_0" arrivalPos="489.60" arrivalSpeed="13.82" duration="109.00" routeLength="994.90" waitingTime="25.00" waitingCount="1" stopTime="0.00" timeLoss="36.76" rerouteNo="0" devices="tripinfo_flow_off_S2N.0 routing_flow_off_S2N.0 emissions_flow_off_S2N.0" vType="car" speedFactor="1.00" vaporized="">
        <emissions CO_abs="1273.16" CO2_abs="255970.41" HC_abs="8.50" PMx_abs="21.77" NOx_abs="90.02" fuel_abs="82982.36" electricity_abs="0.00"/>
    </tripinfo>
    <tripinfo id="flow_off_S2N.2" depart="42.00" departLane="S2C_0" departPos="5.10" departSpeed="0.00" departDelay="0.00" arrival="118.00" arrivalLane="C2N_1" arrivalPos="489.60" arrivalSpeed="14.29" duration="76.00" routeLength="994.90" waitingTime="0.00" waitingCount="0" stopTime="0.00" timeLoss="8.38" rerouteNo="0" devices="tripinfo_flow_off_S2N.2 routing_flow_off_S2N.2 emissions_flow_off_S2N.2" vType="car" speedFactor="1.07" vaporized="">
        <emissions CO_abs="1173.14" CO2_abs="189216.72" HC_abs="7.86" PMx_abs="22.40" NOx_abs="66.43" fuel_abs="61341.58" electricity_abs="0.00"/>
    </tripinfo>
    <tripinfo id="flow_off_S2N.3" depart="44.00" departLane="S2C_0" departPos="2.10" departSpeed="0.00" departDelay="0.00" arrival="124.00" arrivalLane="C2N_0" arrivalPos="489.60" arrivalSpeed="12.92" duration="80.00" routeLength="997.90" waitingTime="0.00" waitingCount="0" stopTime="0.00" timeLoss="7.35" rerouteNo="0" devices="tripinfo_flow_off_S2N.3 routing_flow_off_S2N.3 emissions_flow_off_S2N.3" vType="moto" speedFactor="1.00" vaporized="">
        <emissions CO_abs="3658.10" CO2_abs="109067.67" HC_abs="1306.40" PMx_abs="26.45" NOx_abs="156.83" fuel_abs="35365.83" electricity_abs="0.00"/>
    </tripinfo>
    <tripinfo id="flow_off_N2S.3" depart="56.00" departLane="N2C_0" departPos="5.10" departSpeed="0.00" departDelay="0.00" arrival="133.00" arrivalLane="C2S_0" arrivalPos="489.60" arrivalSpeed="13.54" duration="77.00" routeLength="994.90" waitingTime="0.00" waitingCount="0" stopTime="0.00" timeLoss="6.89" rerouteNo="0" devices="tripinfo_flow_off_N2S.3 routing_flow_off_N2S.3 emissions_flow_off_N2S.3" vType="car" speedFactor="1.03" vaporized="">
        <emissions CO_abs="1065.13" CO2_abs="184585.89" HC_abs="7.15" PMx_abs="23.14" NOx_abs="65.12" fuel_abs="59840.43" electricity_abs="0.00"/>
    </tripinfo>
    <tripinfo id="flow_off_N2S.2" depart="52.00" departLane="N2C_0" departPos="5.10" departSpeed="0.00" departDelay="0.00" arrival="135.00" arrivalLane="C2S_0" arrivalPos="489.60" arrivalSpeed="12.03" duration="83.00" routeLength="994.90" waitingTime="0.00" waitingCount="0" stopTime="0.00" timeLoss="6.46" rerouteNo="0" devices="tripinfo_flow_off_N2S.2 routing_flow_off_N2S.2 emissions_flow_off_N2S.2" vType="car" speedFactor="0.94" vaporized="">
        <emissions CO_abs="960.91" CO2_abs="184062.34" HC_abs="6.44" PMx_abs="21.41" NOx_abs="64.08" fuel_abs="59670.70" electricity_abs="0.00"/>
    </tripinfo>
    <tripinfo id="flow_off_S2N.4" depart="53.00" departLane="S2C_0" departPos="5.10" departSpeed="0.00" departDelay="0.00" arrival="145.00" arrivalLane="C2N_0" arrivalPos="489.60" arrivalSpeed="10.75" duration="92.00" routeLength="994.90" waitingTime="0.00" waitingCount="0" stopTime="0.00" timeLoss="7.80" rerouteNo="0" devices="tripinfo_flow_off_S2N.4 routing_flow_off_S2N.4 emissions_flow_off_S2N.4" vType="car" speedFactor="0.86" vaporized="">
        <emissions CO_abs="836.41" CO2_abs="184830.28" HC_abs="5.59" PMx_abs="20.01" NOx_abs="63.68" fuel_abs="59919.68" electricity_abs="0.00"/>
    </tripinfo>
    <tripinfo id="flow_off_W2E.3" depart="44.00" departLane="W2C_0" departPos="5.10" departSpeed="0.00" departDelay="0.00" arrival="149.00" arrivalLane="C2E_0" arrivalPos="489.60" arrivalSpeed="16.37" duration="105.00" routeLength="994.90" waitingTime="34.00" waitingCount="1" stopTime="0.00" timeLoss="46.55" rerouteNo="0" devices="tripinfo_flow_off_W2E.3 routing_flow_off_W2E.3 emissions_flow_off_W2E.3" vType="car" speedFactor="1.23" vaporized="">
        <emissions CO_abs="1699.85" CO2_abs="280669.92" HC_abs="11.38" PMx_abs="24.86" NOx_abs="101.50" fuel_abs="90989.61" electricity_abs="0.00"/>
    </tripinfo>
    <tripinfo id="flow_off_S2N.5" depart="66.00" departLane="S2C_0" departPos="5.10" departSpeed="0.00" departDelay="0.00" arrival="152.00" arrivalLane="C2N_0" arrivalPos="489.60" arrivalSpeed="12.54" duration="86.00" routeLength="994.90" waitingTime="0.00" waitingCount="0" stopTime="0.00" timeLoss="7.01" rerouteNo="0" devices="tripinfo_flow_off_S2N.5 routing_flow_off_S2N.5 emissions_flow_off_S2N.5" vType="car" speedFactor="0.92" vaporized="">
        <emissions CO_abs="870.06" CO2_abs="183416.49" HC_abs="5.83" PMx_abs="21.81" NOx_abs="63.86" fuel_abs="59461.40" electricity_abs="0.00"/>
    </tripinfo>
    <tripinfo id="flow_off_W2E.2" depart="39.00" departLane="W2C_0" departPos="2.10" departSpeed="0.00" departDelay="0.00" arrival="154.00" arrivalLane="C2E_0" arrivalPos="489.60" arrivalSpeed="12.93" duration="115.00" routeLength="997.90" waitingTime="35.00" waitingCount="1" stopTime="0.00" timeLoss="45.62" rerouteNo="0" devices="tripinfo_flow_off_W2E.2 routing_flow_off_W2E.2 emissions_flow_off_W2E.2" vType="moto" speedFactor="1.04" vaporized="">
        <emissions CO_abs="4465.14" CO2_abs="178049.29" HC_abs="2316.75" PMx_abs="47.38" NOx_abs="206.74" fuel_abs="57734.09" electricity_abs="0.00"/>
    </tripinfo>
    <tripinfo id="flow_off_W2E.4" depart="70.00" departLane="W2C_0" departPos="2.10" departSpeed="0.00" departDelay="0.00" arrival="162.00" arrivalLane="C2E_0" arrivalPos="489.60" arrivalSpeed="11.84" duration="92.00" routeLength="997.90" waitingTime="0.00" waitingCount="0" stopTime="0.00" timeLoss="12.31" rerouteNo="0" devices="tripinfo_flow_off_W2E.4 routing_flow_off_W2E.4 emissions_flow_off_W2E.4" vType="moto" speedFactor="0.91" vaporized="">
        <emissions CO_abs="3122.97" CO2_abs="123685.16" HC_abs="1499.63" PMx_abs="30.53" NOx_abs="159.28" fuel_abs="40105.67" electricity_abs="0.00"/>
    </tripinfo>
    <tripinfo id="flow_off_W2E.5" depart="87.00" departLane="W2C_0" departPos="5.10" departSpeed="0.00" departDelay="0.00" arrival="162.00" arrivalLane="C2E_1" arrivalPos="489.60" arrivalSpeed="13.83" duration="75.00" routeLength="994.90" waitingTime="0.00" waitingCount="0" stopTime="0.00" timeLoss="6.72" rerouteNo="0" devices="tripinfo_flow_off_W2E.5 routing_flow_off_W2E.5 emissions_flow_off_W2E.5" vType="car" speedFactor="1.06" vaporized="">
        <emissions CO_abs="1070.85" CO2_abs="180262.70" HC_abs="7.20" PMx_abs="22.92" NOx_abs="63.71" fuel_abs="58438.90" electricity_abs="0.00"/>
    </tripinfo>
    <tripinfo id="flow_off_W2E.6" depart="94.00" departLane="W2C_0" departPos="2.10" departSpeed="0.00" departDelay="0.00" arrival="163.00" arrivalLane="C2E_0" arrivalPos="489.60" arrivalSpeed="13.34" duration="69.00" routeLength="997.90" waitingTime="0.00" waitingCount="0" stopTime="0.00" timeLoss="7.30" rerouteNo="0" devices="tripinfo_flow_off_W2E.6 routing_flow_off_W2E.6 emissions_flow_off_W2E.6" vType="moto" speedFactor="1.17" vaporized="">
        <emissions CO_abs="5028.99" CO2_abs="108000.68" HC_abs="1217.33" PMx_abs="23.47" NOx_abs="185.06" fuel_abs="35019.42" electricity_abs="0.00"/>
    </tripinfo>
    <tripinfo id="flow_off_E2W.0" depart="91.00" departLane="E2C_0" departPos="5.10" departSpeed="0.00" departDelay="0.00" arrival="172.00" arrivalLane="C2W_0" arrivalPos="489.60" arrivalSpeed="12.26" duration="81.00" routeLength="994.90" waitingTime="0.00" waitingCount="0" stopTime="0.00" timeLoss="6.65" rerouteNo="0" devices="tripinfo_flow_off_E2W.0 routing_flow_off_E2W.0 emissions_flow_off_E2W.0" vType="car" speedFactor="0.97" vaporized="">
        <emissions CO_abs="924.83" CO2_abs="170295.01" HC_abs="6.20" PMx_abs="20.04" NOx_abs="59.44" fuel_abs="55207.48" electricity_abs="0.00"/>
    </tripinfo>
    <tripinfo id="flow_off_E2W.1" depart="95.00" departLane="E2C_0" departPos="5.10" departSpeed="0.00" departDelay="0.00" arrival="176.00" arrivalLane="C2W_0" arrivalPos="489.60" arrivalSpeed="12.91" duration="81.00" routeLength="994.90" waitingTime="0.00" waitingCount="0" stopTime="0.00" timeLoss="6.13" rerouteNo="0" devices="tripinfo_flow_off_E2W.1 routing_flow_off_E2W.1 emissions_flow_off_E2W.1" vType="car" speedFactor="0.97" vaporized="">
        <emissions CO_abs="970.57" CO2_abs="172851.35" HC_abs="6.49" PMx_abs="19.46" NOx_abs="60.09" fuel_abs="56036.16" electricity_abs="0.00"/>
    </tripinfo>
    <tripinfo id="flow_off_W2E.7" depart="105.00" departLane="W2C_0" departPos="5.10" departSpeed="0.00" departDelay="0.00" arrival="184.00" arrivalLane="C2E_0" arrivalPos="489.60" arrivalSpeed="12.66" duration="79.00" routeLength="994.90" waitingTime="0.00" waitingCount="0" stopTime="0.00" timeLoss="6.25" rerouteNo="0" devices="tripinfo_flow_off_W2E.7 routing_flow_off_W2E.7 emissions_flow_off_W2E.7" vType="car" speedFactor="1.00" vaporized="">
        <emissions CO_abs="1059.13" CO2_abs="184055.53" HC_abs="7.10" PMx_abs="21.59" NOx_abs="64.44" fuel_abs="59668.44" electricity_abs="0.00"/>
    </tripinfo>
    <tripinfo id="flow_off_S2N.7" depart="87.00" departLane="S2C_0" departPos="5.10" departSpeed="0.00" departDelay="0.00" arrival="192.00" arrivalLane="C2N_0" arrivalPos="489.60" arrivalSpeed="14.75" duration="105.00" routeLength="994.90" waitingTime="27.00" waitingCount="1" stopTime="0.00" timeLoss="40.30" rerouteNo="0" devices="tripinfo_flow_off_S2N.7 routing_flow_off_S2N.7 emissions_flow_off_S2N.7" vType="car" speedFactor="1.12" vaporized="">
        <emissions CO_abs="1346.99" CO2_abs="260506.50" HC_abs="9.04" PMx_abs="25.55" NOx_abs="93.17" fuel_abs="84453.08" electricity_abs="0.00"/>
    </tripinfo>
    <tripinfo id="flow_off_S2N.6" depart="81.00" departLane="S2C_0" departPos="2.10" departSpeed="0.00" departDelay="0.00" arrival="194.00" arrivalLane="C2N_0" arrivalPos="489.60" arrivalSpeed="12.98" duration="113.00" routeLength="997.90" waitingTime="31.00" waitingCount="1" stopTime="0.00" timeLoss="42.63" rerouteNo="0" devices="tripinfo_flow_off_S2N.6 routing_flow_off_S2N.6 emissions_flow_off_S2N.6" vType="moto" speedFactor="1.03" vaporized="">
        <emissions CO_abs="3821.48" CO2_abs="157379.91" HC_abs="2046.34" PMx_abs="41.26" NOx_abs="184.64" fuel_abs="51031.72" electricity_abs="0.00"/>
    </tripinfo>
    <tripinfo id="flow_off_S2N.9" depart="106.00" departLane="S2C_0" departPos="5.10" departSpeed="0.00" departDelay="0.00" arrival="195.00" arrivalLane="C2N_1" arrivalPos="489.60" arrivalSpeed="14.56" duration="89.00" routeLength="994.90" waitingTime="8.00" waitingCount="1" stopTime="0.00" timeLoss="21.85" rerouteNo="0" devices="tripinfo_flow_off_S2N.9 routing_flow_off_S2N.9 emissions_flow_off_S2N.9" vType="car" speedFactor="1.07" vaporized="">
        <emissions CO_abs="1333.01" CO2_abs="229992.87" HC_abs="8.91" PMx_abs="23.20" NOx_abs="80.71" fuel_abs="74560.67" electricity_abs="0.00"/>
    </tripinfo>
    <tripinfo id="flow_off_S2N.8" depart="91.00" departLane="S2C_0" departPos="5.10" departSpeed="0.00" departDelay="0.00" arrival="196.00" arrivalLane="C2N_0" arrivalPos="489.60" arrivalSpeed="12.88" duration="105.00" routeLength="994.90" waitingTime="22.00" waitingCount="1" stopTime="0.00" timeLoss="33.99" rerouteNo="0" devices="tripinfo_flow_off_S2N.8 routing_flow_off_S2N.8 emissions_flow_off_S2N.8" vType="car" speedFactor="1.02" vaporized="">
        <emissions CO_abs="1156.49" CO2_abs="237362.86" HC_abs="7.73" PMx_abs="21.20" NOx_abs="83.61" fuel_abs="76950.01" electricity_abs="0.00"/>
    </tripinfo>
    <tripinfo id="flow_off_S2N.10" depart="109.00" departLane="S2C_0" departPos="2.10" departSpeed="0.00" departDelay="0.00" arrival="197.00" arrivalLane="C2N_1" arrivalPos="489.60" arrivalSpeed="13.34" duration="88.00" routeLength="997.90" waitingTime="8.00" waitingCount="1" stopTime="0.00" timeLoss="20.35" rerouteNo="0" devices="tripinfo_flow_off_S2N.10 routing_flow_off_S2N.10 emissions_flow_off_S2N.10" vType="moto" speedFactor="1.07" vaporized="">
        <emissions CO_abs="4456.06" CO2_abs="137473.27" HC_abs="1657.40" PMx_abs="33.03" NOx_abs="193.44" fuel_abs="44576.39" electricity_abs="0.00"/>
    </tripinfo>
    <tripinfo id="flow_off_S2N.11" depart="123.00" departLane="S2C_0" departPos="2.10" departSpeed="0.00" departDelay="0.00" arrival="200.00" arrivalLane="C2N_0" arrivalPos="489.60" arrivalSpeed="13.97" duration="77.00" routeLength="997.90" waitingTime="0.00" waitingCount="0" stopTime="0.00" timeLoss="6.97" rerouteNo="0" devices="tripinfo_flow_off_S2N.11 routing_flow_off_S2N.11 emissions_flow_off_S2N.11" vType="moto" speedFactor="1.04" vaporized="">
        <emissions CO_abs="4195.55" CO2_abs="113439.44" HC_abs="1339.40" PMx_abs="26.80" NOx_abs="171.85" fuel_abs="36783.29" electricity_abs="0.00"/>
    </tripinfo>
    <tripinfo id="flow_off_N2S.4" depart="127.00" departLane="N2C_0" departPos="2.10" departSpeed="0.00" departDelay="0.00" arrival="212.00" arrivalLane="C2S_0" arrivalPos="489.60" arrivalSpeed="12.73" duration="85.00" routeLength="997.90" waitingTime="0.00" waitingCount="0" stopTime="0.00" timeLoss="7.78" rerouteNo="0" devices="tripinfo_flow_off_N2S.4 routing_flow_off_N2S.4 emissions_flow_off_N2S.4" vType="moto" speedFactor="0.93" vaporized="">
        <emissions CO_abs="3524.26" CO2_abs="117759.55" HC_abs="1407.14" PMx_abs="28.19" NOx_abs="167.14" fuel_abs="38184.13" electricity_abs="0.00"/>
    </tripinfo>
    <tripinfo id="flow_off_N2S.5" depart="139.00" departLane="N2C_0" departPos="15.10" departSpeed="0.00" departDelay="0.00" arrival="217.00" arrivalLane="C2S_0" arrivalPos="489.60" arrivalSpeed="13.94" duration="78.00" routeLength="984.90" waitingTime="0.00" waitingCount="0" stopTime="0.00" timeLoss="9.61" rerouteNo="0" devices="tripinfo_flow_off_N2S.5 routing_flow_off_N2S.5 emissions_flow_off_N2S.5" vType="truck" speedFactor="1.04" vaporized="">
        <emissions CO_abs="106.70" CO2_abs="425595.87" HC_abs="9.57" PMx_abs="125.60" NOx_abs="226.73" fuel_abs="136786.34" electricity_abs="0.00"/>
    </tripinfo>
    <tripinfo id="flow_off_E2W.2" depart="117.00" departLane="E2C_0" departPos="5.10" departSpeed="0.00" departDelay="0.00" arrival="231.00" arrivalLane="C2W_0" arrivalPos="489.60" arrivalSpeed="14.47" duration="114.00" routeLength="994.90" waitingTime="34.00" waitingCount="1" stopTime="0.00" timeLoss="45.20" rerouteNo="0" devices="tripinfo_flow_off_E2W.2 routing_flow_off_E2W.2 emissions_flow_off_E2W.2" vType="car" speedFactor="1.06" vaporized="">
        <emissions CO_abs="1325.99" CO2_abs="261967.08" HC_abs="8.85" PMx_abs="21.49" NOx_abs="93.62" fuel_abs="84926.43" electricity_abs="0.00"/>
    </tripinfo>
    <tripinfo id="flow_off_E2W.4" depart="160.00" departLane="E2C_0" departPos="2.10" departSpeed="0.00" departDelay="0.00" arrival="232.00" arrivalLane="C2W_1" arrivalPos="489.60" arrivalSpeed="14.12" duration="72.00" routeLength="997.90" waitingTime="0.00" waitingCount="0" stopTime="0.00" timeLoss="9.37" rerouteNo="0" devices="tripinfo_flow_off_E2W.4 routing_flow_off_E2W.4 emissions_flow_off_E2W.4" vType="moto" speedFactor="1.15" vaporized="">
        <emissions CO_abs="5343.14" CO2_abs="126487.03" HC_abs="1463.84" PMx_abs="29.00" NOx_abs="202.94" fuel_abs="41013.91" electricity_abs="0.00"/>
    </tripinfo>
    <tripinfo id="flow_off_E2W.3" depart="146.00" departLane="E2C_0" departPos="5.10" departSpeed="0.00" departDelay="0.00" arrival="234.00" arrivalLane="C2W_0" arrivalPos="489.60" arrivalSpeed="12.12" duration="88.00" routeLength="994.90" waitingTime="0.00" waitingCount="0" stopTime="0.00" timeLoss="12.89" rerouteNo="0" devices="tripinfo_flow_off_E2W.3 routing_flow_off_E2W.3 emissions_flow_off_E2W.3" vType="car" speedFactor="0.96" vaporized="">
        <emissions CO_abs="1052.54" CO2_abs="205854.86" HC_abs="7.04" PMx_abs="21.43" NOx_abs="70.69" fuel_abs="66735.36" electricity_abs="0.00"/>
    </tripinfo>
    <tripinfo id="flow_off_W2E.8" depart="131.00" departLane="W2C_0" departPos="5.10" departSpeed="0.00" departDelay="0.00" arrival="241.00" arrivalLane="C2E_0" arrivalPos="489.60" arrivalSpeed="11.15" duration="110.00" routeLength="994.90" waitingTime="11.00" waitingCount="1" stopTime="0.00" timeLoss="23.81" rerouteNo="0" devices="tripinfo_flow_off_W2E.8 routing_flow_off_W2E.8 emissions_flow_off_W2E.8" vType="car" speedFactor="0.84" vaporized="">
        <emissions CO_abs="862.10" CO2_abs="219359.04" HC_abs="5.75" PMx_abs="19.52" NOx_abs="74.90" fuel_abs="71113.44" electricity_abs="0.00"/>
    </tripinfo>
    <tripinfo id="flow_off_N2S.6" depart="153.00" departLane="N2C_0" departPos="5.10" departSpeed="0.00" departDelay="0.00" arrival="269.00" arrivalLane="C2S_0" arrivalPos="489.60" arrivalSpeed="15.11" duration="116.00" routeLength="994.90" waitingTime="38.00" waitingCount="1" stopTime="0.00" timeLoss="49.80" rerouteNo="0" devices="tripinfo_flow_off_N2S.6 routing_flow_off_N2S.6 emissions_flow_off_N2S.6" vType="car" speedFactor="1.09" vaporized="">
        <emissions CO_abs="1338.49" CO2_abs="269881.16" HC_abs="8.96" PMx_abs="23.14" NOx_abs="97.06" fuel_abs="87492.15" electricity_abs="0.00"/>
    </tripinfo>
    <tripinfo id="flow_off_S2N.12" depart="176.00" departLane="S2C_0" departPos="2.10" departSpeed="0.00" departDelay="0.00" arrival="273.00" arrivalLane="C2N_0" arrivalPos="489.60" arrivalSpeed="11.76" duration="97.00" routeLength="997.90" waitingTime="11.00" waitingCount="1" stopTime="0.00" timeLoss="22.28" rerouteNo="0" devices="tripinfo_flow_off_S2N.12 routing_flow_off_S2N.12 emissions_flow_off_S2N.12" vType="moto" speedFactor="0.97" vaporized="">
        <emissions CO_abs="3612.43" CO2_abs="135000.96" HC_abs="1647.27" PMx_abs="33.40" NOx_abs="174.43" fuel_abs="43774.91" electricity_abs="0.00"/>
    </tripinfo>
    <tripinfo id="flow_off_S2N.14" depart="193.00" departLane="S2C_0" departPos="2.10" departSpeed="0.00" departDelay="0.00" arrival="273.00" arrivalLane="C2N_1" arrivalPos="489.60" arrivalSpeed="12.21" duration="80.00" routeLength="997.90" waitingTime="0.00" waitingCount="0" stopTime="0.00" timeLoss="8.87" rerouteNo="0" devices="tripinfo_flow_off_S2N.14 routing_flow_off_S2N.14 emissions_flow_off_S2N.14" vType="moto" speedFactor="1.02" vaporized="">
        <emissions CO_abs="3749.31" CO2_abs="109085.27" HC_abs="1296.68" PMx_abs="26.06" NOx_abs="159.69" fuel_abs="35371.47" electricity_abs="0.00"/>
    </tripinfo>
    <tripinfo id="flow_off_N2S.8" depart="186.00" departLane="N2C_0" departPos="2.10" departSpeed="0.00" departDelay="0.00" arrival="274.00" arrivalLane="C2S_0" arrivalPos="489.60" arrivalSpeed="12.54" duration="88.00" routeLength="997.90" waitingTime="3.00" waitingCount="1" stopTime="0.00" timeLoss="17.77" rerouteNo="0" devices="tripinfo_flow_off_N2S.8 routing_flow_off_N2S.8 emissions_flow_off_N2S.8" vType="moto" speedFactor="1.03" vaporized="">
        <emissions CO_abs="4236.11" CO2_abs="139660.42" HC_abs="1690.97" PMx_abs="34.55" NOx_abs="187.22" fuel_abs="45285.80" electricity_abs="0.00"/>
    </tripinfo>
    <tripinfo id="flow_off_S2N.13" depart="191.00" departLane="S2C_0" departPos="5.10" departSpeed="0.00" departDelay="0.00" arrival="275.00" arrivalLane="C2N_0" arrivalPos="489.60" arrivalSpeed="12.29" duration="84.00" routeLength="994.90" waitingTime="0.00" waitingCount="0" stopTime="0.00" timeLoss="6.81" rerouteNo="0" devices="tripinfo_flow_off_S2N.13 routing_flow_off_S2N.13 emissions_flow_off_S2N.13" vType="car" speedFactor="0.93" vaporized="">
        <emissions CO_abs="868.11" CO2_abs="178679.42" HC_abs="5.82" PMx_abs="21.49" NOx_abs="62.27" fuel_abs="57925.70" electricity_abs="0.00"/>
    </tripinfo>
    <tripinfo id="flow_off_N2S.7" depart="178.00" departLane="N2C_0" departPos="5.10" departSpeed="0.00" departDelay="0.00" arrival="278.00" arrivalLane="C2S_0" arrivalPos="489.60" arrivalSpeed="10.77" duration="100.00" routeLength="994.90" waitingTime="4.00" waitingCount="1" stopTime="0.00" timeLoss="15.63" rerouteNo="0" devices="tripinfo_flow_off_N2S.7 routing_flow_off_N2S.7 emissions_flow_off_N2S.7" vType="car" speedFactor="0.86" vaporized="">
        <emissions CO_abs="833.74" CO2_abs="199407.56" HC_abs="5.57" PMx_abs="19.50" NOx_abs="67.88" fuel_abs="64645.40" electricity_abs="0.00"/>
    </tripinfo>
    <tripinfo id="flow_off_S2N.15" depart="197.00" departLane="S2C_0" departPos="2.10" departSpeed="0.00" departDelay="0.00" arrival="280.00" arrivalLane="C2N_0" arrivalPos="489.60" arrivalSpeed="12.61" duration="83.00" routeLength="997.90" waitingTime="0.00" waitingCount="0" stopTime="0.00" timeLoss="7.42" rerouteNo="0" devices="tripinfo_flow_off_S2N.15 routing_flow_off_S2N.15 emissions_flow_off_S2N.15" vType="moto" speedFactor="0.96" vaporized="">
        <emissions CO_abs="3700.01" CO2_abs="116972.79" HC_abs="1397.16" PMx_abs="28.05" NOx_abs="168.17" fuel_abs="37929.04" electricity_abs="0.00"/>
    </tripinfo>
    <tripinfo id="flow_off_N2S.10" depart="210.00" departLane="N2C_0" departPos="2.10" departSpeed="0.00" departDelay="1.00" arrival="282.00" arrivalLane="C2S_0" arrivalPos="489.60" arrivalSpeed="14.72" duration="72.00" routeLength="997.90" waitingTime="0.00" waitingCount="0" stopTime="0.00" timeLoss="7.87" rerouteNo="0" devices="tripinfo_flow_off_N2S.10 routing_flow_off_N2S.10 emissions_flow_off_N2S.10" vType="moto" speedFactor="1.12" vaporized="">
        <emissions CO_abs="4519.44" CO2_abs="106720.75" HC_abs="1230.23" PMx_abs="24.16" NOx_abs="172.55" fuel_abs="34604.55" electricity_abs="0.00"/>
    </tripinfo>
    <tripinfo id="flow_off_N2S.9" depart="208.00" departLane="N2C_0" departPos="5.10" departSpeed="0.00" departDelay="0.00" arrival="295.00" arrivalLane="C2S_0" arrivalPos="489.60" arrivalSpeed="12.06" duration="87.00" routeLength="994.90" waitingTime="0.00" waitingCount="0" stopTime="0.00" timeLoss="7.33" rerouteNo="0" devices="tripinfo_flow_off_N2S.9 routing_flow_off_N2S.9 emissions_flow_off_N2S.9" vType="car" speedFactor="0.90" vaporized="">
        <emissions CO_abs="806.17" CO2_abs="184116.62" HC_abs="5.41" PMx_abs="22.51" NOx_abs="64.25" fuel_abs="59688.46" electricity_abs="0.00"/>
    </tripinfo>
    <tripinfo id="flow_off_S2N.16" depart="211.00" departLane="S2C_0" departPos="5.10" departSpeed="0.00" departDelay="0.00" arrival="295.00" arrivalLane="C2N_0" arrivalPos="489.60" arrivalSpeed="12.42" duration="84.00" routeLength="994.90" waitingTime="0.00" waitingCount="0" stopTime="0.00" timeLoss="6.92" rerouteNo="0" devices="tripinfo_flow_off_S2N.16 routing_flow_off_S2N.16 emissions_flow_off_S2N.16" vType="car" speedFactor="0.93" vaporized="">
        <emissions CO_abs="883.86" CO2_abs="178209.60" HC_abs="5.93" PMx_abs="20.82" NOx_abs="61.94" fuel_abs="57773.34" electricity_abs="0.00"/>
    </tripinfo>
    <tripinfo id="flow_off_E2W.7" depart="227.00" departLane="E2C_0" departPos="5.10" departSpeed="0.00" departDelay="0.00" arrival="312.00" arrivalLane="C2W_1" arrivalPos="489.60" arrivalSpeed="16.54" duration="85.00" routeLength="994.90" waitingTime="5.00" waitingCount="1" stopTime="0.00" timeLoss="24.70" rerouteNo="0" devices="tripinfo_flow_off_E2W.7 routing_flow_off_E2W.7 emissions_flow_off_E2W.7" vType="car" speedFactor="1.20" vaporized="">
        <emissions CO_abs="1539.87" CO2_abs="236584.35" HC_abs="10.30" PMx_abs="23.42" NOx_abs="82.74" fuel_abs="76697.31" electricity_abs="0.00"/>
    </tripinfo>
    <tripinfo id="flow_off_E2W.6" depart="187.00" departLane="E2C_0" departPos="12.10" departSpeed="0.00" departDelay="0.00" arrival="313.00" arrivalLane="C2W_0" arrivalPos="489.60" arrivalSpeed="13.70" duration="126.00" routeLength="987.90" waitingTime="37.00" waitingCount="1" stopTime="0.00" timeLoss="54.41" rerouteNo="0" devices="tripinfo_flow_off_E2W.6 routing_flow_off_E2W.6 emissions_flow_off_E2W.6" vType="bus" speedFactor="1.00" vaporized="">
        <emissions CO_abs="302.59" CO2_abs="1326827.85" HC_abs="25.26" PMx_abs="185.76" NOx_abs="592.85" fuel_abs="426399.13" electricity_abs="0.00"/>
    </tripinfo>
    <tripinfo id="flow_off_W2E.9" depart="254.00" departLane="W2C_0" departPos="2.10" departSpeed="0.00" departDelay="0.00" arrival="316.00" arrivalLane="C2E_0" arrivalPos="489.60" arrivalSpeed="16.19" duration="62.00" routeLength="997.90" waitingTime="0.00" waitingCount="0" stopTime="0.00" timeLoss="5.90" rerouteNo="0" devices="tripinfo_flow_off_W2E.9 routing_flow_off_W2E.9 emissions_flow_off_W2E.9" vType="moto" speedFactor="1.29" vaporized="">
        <emissions CO_abs="6483.78" CO2_abs="115352.68" HC_abs="1274.18" PMx_abs="25.27" NOx_abs="201.94" fuel_abs="37403.44" electricity_abs="0.00"/>
    </tripinfo>
    <tripinfo id="flow_off_E2W.8" depart="244.00" departLane="E2C_0" departPos="5.10" departSpeed="0.00" departDelay="0.00" arrival="320.00" arrivalLane="C2W_1" arrivalPos="489.60" arrivalSpeed="13.69" duration="76.00" routeLength="994.90" waitingTime="0.00" waitingCount="0" stopTime="0.00" timeLoss="6.53" rerouteNo="0" devices="tripinfo_flow_off_E2W.8 routing_flow_off_E2W.8 emissions_flow_off_E2W.8" vType="car" speedFactor="1.04" vaporized="">
        <emissions CO_abs="1107.00" CO2_abs="180539.45" HC_abs="7.42" PMx_abs="21.31" NOx_abs="63.44" fuel_abs="58528.53" electricity_abs="0.00"/>
    </tripinfo>