<?xml version="1.0" encoding="UTF-8"?>

<!-- generated on 2026-05-03T09:23:52.810570+07:00 by Eclipse SUMO sumo 1.26.0
<sumoConfiguration xmlns:xsi="http://www.w3.org/2001/XMLSchema-instance" xsi:noNamespaceSchemaLocation="http://sumo.dlr.de/xsd/sumoConfiguration.xsd">

    <input>
        <net-file value="sumo/network.net.xml"/>
        <route-files value="sumo/routes.rou.xml"/>
        <additional-files value="sumo/tls_webster.add.xml,sumo/traffic.add.xml"/>
    </input>

    <output>
        <tripinfo-output value="C:\Users\DELL\Downloads\project\runs\exp_20260503_084859\evaluation\tripinfo_webster.xml"/>
        <tripinfo-output.write-unfinished value="true"/>
    </output>

    <time>
        <begin value="0"/>
        <end value="7200"/>
    </time>

    <processing>
        <time-to-teleport value="300"/>
        <waiting-time-memory value="10000"/>
    </processing>

    <report>
        <verbose value="false"/>
        <no-step-log value="true"/>
    </report>

    <emissions>
        <device.emissions.probability value="1.0"/>
    </emissions>

    <traci_server>
        <remote-port value="60239"/>
    </traci_server>

    <random_number>
        <seed value="43"/>
    </random_number>

</sumoConfiguration>
-->

<tripinfos xmlns:xsi="http://www.w3.org/2001/XMLSchema-instance" xsi:noNamespaceSchemaLocation="http://sumo.dlr.de/xsd/tripinfo_file.xsd">
    <tripinfo id="flow_off_W2E.0" depart="5.00" departLane="W2C_0" departPos="5.10" departSpeed="0.00" departDelay="0.00" arrival="82.00" arrivalLane="C2E_0" arrivalPos="489.60" arrivalSpeed="13.26" duration="77.00" routeLength="994.90" waitingTime="0.00" waitingCount="0" stopTime="0.00" timeLoss="6.10" rerouteNo="0" devices="tripinfo_flow_off_W2E.0 routing_flow_off_W2E.0 emissions_flow_off_W2E.0" vType="car" speedFactor="1.01" vaporized="">
        <emissions CO_abs="1080.19" CO2_abs="184323.76" HC_abs="7.25" PMx_abs="21.97" NOx_abs="64.68" fuel_abs="59755.39" electricity_abs="0.00"/>
    </tripinfo>
    <tripinfo id="flow_off_S2N.1" depart="29.00" departLane="S2C_0" departPos="5.10" departSpeed="0.00" departDelay="0.00" arrival="116.00" arrivalLane="C2N_0" arrivalPos="489.60" arrivalSpeed="13.89" duration="87.00" routeLength="994.90" waitingTime="7.00" waitingCount="1" stopTime="0.00" timeLoss="20.29" rerouteNo="0" devices="tripinfo_flow_off_S2N.1 routing_flow_off_S2N.1 emissions_flow_off_S2N.1" vType="car" speedFactor="1.08" vaporized="">
        <emissions CO_abs="1266.52" CO2_abs="219231.11" HC_abs="8.47" PMx_abs="22.57" NOx_abs="76.80" fuel_abs="71071.77" electricity_abs="0.00"/>
    </tripinfo>
    <tripinfo id="flow_off_N2S.0" depart="4.00" departLane="N2C_0" departPos="5.10" departSpeed="0.00" departDelay="0.00" arrival="117.00" arrivalLane="C2S_0" arrivalPos="489.60" arrivalSpeed="14.30" duration="113.00" routeLength="994.90" waitingTime="32.00" waitingCount="1" stopTime="0.00" timeLoss="43.18" rerouteNo="0" devices="tripinfo_flow_off_N2S.0 routing_flow_off_N2S.0 emissions_flow_off_N2S.0" vType="car" speedFactor="1.03" vaporized="">
        <emissions CO_abs="1243.10" CO2_abs="256986.86" HC_abs="8.31" PMx_abs="21.67" NOx_abs="91.37" fuel_abs="83312.00" electricity_abs="0.00"/>
    </tripinfo>
    <tripinfo id="flow_off_N2S.1" depart="15.00" departLane="N2C_0" departPos="5.10" departSpeed="0.00" departDelay="0.00" arrival="118.00" arrivalLane="C2S_0" arrivalPos="489.60" arrivalSpeed="13.30" duration="103.00" routeLength="994.90" waitingTime="19.00" waitingCount="1" stopTime="0.00" timeLoss="31.78" rerouteNo="0" devices="tripinfo_flow_off_N2S.1 routing_flow_off_N2S.1 emissions_flow_off_N2S.1" vType="car" speedFactor="1.01" vaporized="">
        <emissions CO_abs="1111.16" CO2_abs="234553.47" HC_abs="7.43" PMx_abs="22.22" NOx_abs="82.46" fuel_abs="76039.36" electricity_abs="0.00"/>
    </tripinfo>
    <tripinfo id="flow_off_S2N.0" depart="3.00" departLane="S2C_0" departPos="5.10" departSpeed="0.00" departDelay="0.00" arrival="120.00" arrivalLane="C2N_0" arrivalPos="489.60" arrivalSpeed="12.81" duration="117.00" routeLength="994.90" waitingTime="28.00" waitingCount="1" stopTime="0.00" timeLoss="41.15" rerouteNo="0" devices="tripinfo_flow_off_S2N.0 routing_flow_off_S2N.0 emissions_flow_off_S2N.0" vType="car" speedFactor="0.95" vaporized="">
        <emissions CO_abs="1093.47" CO2_abs="252588.76" HC_abs="7.30" PMx_abs="21.17" NOx_abs="89.23" fuel_abs="81886.18" electricity_abs="0.00"/>
    </tripinfo>
    <tripinfo id="flow_off_N2S.3" depart="51.00" departLane="N2C_0" departPos="5.10" departSpeed="0.00" departDelay="0.00" arrival="127.00" arrivalLane="C2S_0" arrivalPos="489.60" arrivalSpeed="13.57" duration="76.00" routeLength="994.90" waitingTime="0.00" waitingCount="0" stopTime="0.00" timeLoss="6.09" rerouteNo="0" devices="tripinfo_flow_off_N2S.3 routing_flow_off_N2S.3 emissions_flow_off_N2S.3" vType="car" speedFactor="1.03" vaporized="">
        <emissions CO_abs="1030.42" CO2_abs="183341.94" HC_abs="6.93" PMx_abs="23.69" NOx_abs="64.61" fuel_abs="59437.20" electricity_abs="0.00"/>
    </tripinfo>
    <tripinfo id="flow_off_N2S.4" depart="62.00" departLane="N2C_0" departPos="2.10" departSpeed="0.00" departDelay="0.00" arrival="135.00" arrivalLane="C2S_1" arrivalPos="489.60" arrivalSpeed="14.39" duration="73.00" routeLength="997.90" waitingTime="0.00" waitingCount="0" stopTime="0.00" timeLoss="7.03" rerouteNo="0" devices="tripinfo_flow_off_N2S.4 routing_flow_off_N2S.4 emissions_flow_off_N2S.4" vType="moto" speedFactor="1.10" vaporized="">
        <emissions CO_abs="4542.27" CO2_abs="110353.72" HC_abs="1284.15" PMx_abs="25.63" NOx_abs="173.21" fuel_abs="35782.68" electricity_abs="0.00"/>
    </tripinfo>
    <tripinfo id="flow_off_N2S.2" depart="44.00" departLane="N2C_0" departPos="5.10" departSpeed="0.00" departDelay="0.00" arrival="138.00" arrivalLane="C2S_0" arrivalPos="489.60" arrivalSpeed="10.96" duration="94.00" routeLength="994.90" waitingTime="0.00" waitingCount="0" stopTime="0.00" timeLoss="7.74" rerouteNo="0" devices="tripinfo_flow_off_N2S.2 routing_flow_off_N2S.2 emissions_flow_off_N2S.2" vType="car" speedFactor="0.83" vaporized="">
        <emissions CO_abs="826.60" CO2_abs="185303.86" HC_abs="5.51" PMx_abs="19.26" NOx_abs="63.46" fuel_abs="60073.18" electricity_abs="0.00"/>
    </tripinfo>
    <tripinfo id="flow_off_S2N.2" depart="60.00" departLane="S2C_0" departPos="5.10" departSpeed="0.00" departDelay="0.00" arrival="141.00" arrivalLane="C2N_0" arrivalPos="489.60" arrivalSpeed="12.48" duration="81.00" routeLength="994.90" waitingTime="0.00" waitingCount="0" stopTime="0.00" timeLoss="6.39" rerouteNo="0" devices="tripinfo_flow_off_S2N.2 routing_flow_off_S2N.2 emissions_flow_off_S2N.2" vType="car" speedFactor="0.97" vaporized="">
        <emissions CO_abs="978.39" CO2_abs="179904.35" HC_abs="6.56" PMx_abs="21.27" NOx_abs="62.83" fuel_abs="58322.72" electricity_abs="0.00"/>
    </tripinfo>
    <tripinfo id="flow_off_E2W.0" depart="41.00" departLane="E2C_0" departPos="5.10" departSpeed="0.00" departDelay="0.00" arrival="158.00" arrivalLane="C2W_0" arrivalPos="489.60" arrivalSpeed="12.35" duration="117.00" routeLength="994.90" waitingTime="30.00" waitingCount="1" stopTime="0.00" timeLoss="41.50" rerouteNo="0" devices="tripinfo_flow_off_E2W.0 routing_flow_off_E2W.0 emissions_flow_off_E2W.0" vType="car" speedFactor="0.96" vaporized="">
        <emissions CO_abs="1043.71" CO2_abs="244641.22" HC_abs="6.98" PMx_abs="20.47" NOx_abs="85.91" fuel_abs="79309.71" electricity_abs="0.00"/>
    </tripinfo>
    <tripinfo id="flow_off_E2W.2" depart="76.00" departLane="E2C_0" departPos="15.10" departSpeed="0.00" departDelay="0.00" arrival="161.00" arrivalLane="C2W_0" arrivalPos="489.60" arrivalSpeed="15.00" duration="85.00" routeLength="984.90" waitingTime="0.00" waitingCount="0" stopTime="0.00" timeLoss="18.72" rerouteNo="0" devices="tripinfo_flow_off_E2W.2 routing_flow_off_E2W.2 emissions_flow_off_E2W.2" vType="truck" speedFactor="1.10" vaporized="">
        <emissions CO_abs="118.01" CO2_abs="472534.89" HC_abs="10.41" PMx_abs="129.15" NOx_abs="233.01" fuel_abs="151868.65" electricity_abs="0.00"/>
    </tripinfo>
    <tripinfo id="flow_off_E2W.1" depart="66.00" departLane="E2C_0" departPos="15.10" departSpeed="0.00" departDelay="0.00" arrival="163.00" arrivalLane="C2W_1" arrivalPos="489.60" arrivalSpeed="12.47" duration="97.00" routeLength="984.90" waitingTime="1.00" waitingCount="1" stopTime="0.00" timeLoss="19.85" rerouteNo="0" devices="tripinfo_flow_off_E2W.1 routing_flow_off_E2W.1 emissions_flow_off_E2W.1" vType="truck" speedFactor="0.93" vaporized="">
        <emissions CO_abs="134.89" CO2_abs="471963.35" HC_abs="11.13" PMx_abs="144.98" NOx_abs="234.00" fuel_abs="151683.46" electricity_abs="0.00"/>
    </tripinfo>
    <tripinfo id="flow_off_W2E.1" depart="53.00" departLane="W2C_0" departPos="2.10" departSpeed="0.00" departDelay="0.00" arrival="164.00" arrivalLane="C2E_0" arrivalPos="489.60" arrivalSpeed="11.18" duration="111.00" routeLength="997.90" waitingTime="11.00" waitingCount="1" stopTime="0.00" timeLoss="23.45" rerouteNo="0" devices="tripinfo_flow_off_W2E.1 routing_flow_off_W2E.1 emissions_flow_off_W2E.1" vType="moto" speedFactor="0.82" vaporized="">
        <emissions CO_abs="2726.83" CO2_abs="143550.95" HC_abs="1812.97" PMx_abs="37.43" NOx_abs="161.88" fuel_abs="46547.56" electricity_abs="0.00"/>
    </tripinfo>
    <tripinfo id="flow_off_W2E.2" depart="85.00" departLane="W2C_0" departPos="5.10" departSpeed="0.00" departDelay="0.00" arrival="165.00" arrivalLane="C2E_1" arrivalPos="489.60" arrivalSpeed="12.65" duration="80.00" routeLength="994.90" waitingTime="0.00" waitingCount="0" stopTime="0.00" timeLoss="6.45" rerouteNo="0" devices="tripinfo_flow_off_W2E.2 routing_flow_off_W2E.2 emissions_flow_off_W2E.2" vType="car" speedFactor="0.98" vaporized="">
        <emissions CO_abs="946.20" CO2_abs="172203.56" HC_abs="6.33" PMx_abs="20.23" NOx_abs="60.07" fuel_abs="55826.20" electricity_abs="0.00"/>
    </tripinfo>
    <tripinfo id="flow_off_E2W.3" depart="87.00" departLane="E2C_0" departPos="5.10" departSpeed="0.00" departDelay="0.00" arrival="171.00" arrivalLane="C2W_0" arrivalPos="489.60" arrivalSpeed="12.56" duration="84.00" routeLength="994.90" waitingTime="0.00" waitingCount="0" stopTime="0.00" timeLoss="7.00" rerouteNo="0" devices="tripinfo_flow_off_E2W.3 routing_flow_off_E2W.3 emissions_flow_off_E2W.3" vType="car" speedFactor="0.94" vaporized="">
        <emissions CO_abs="941.63" CO2_abs="184507.33" HC_abs="6.31" PMx_abs="21.34" NOx_abs="64.18" fuel_abs="59814.97" electricity_abs="0.00"/>
    </tripinfo>
    <tripinfo id="flow_off_E2W.4" depart="106.00" departLane="E2C_0" departPos="12.10" departSpeed="0.00" departDelay="0.00" arrival="186.00" arrivalLane="C2W_0" arrivalPos="489.60" arrivalSpeed="13.59" duration="80.00" routeLength="987.90" waitingTime="0.00" waitingCount="0" stopTime="0.00" timeLoss="8.45" rerouteNo="0" devices="tripinfo_flow_off_E2W.4 routing_flow_off_E2W.4 emissions_flow_off_E2W.4" vType="bus" speedFactor="1.00" vaporized="">
        <emissions CO_abs="197.34" CO2_abs="1039167.60" HC_abs="19.02" PMx_abs="131.25" NOx_abs="424.13" fuel_abs="333950.48" electricity_abs="0.00"/>
    </tripinfo>
    <tripinfo id="flow_off_N2S.6" depart="113.00" departLane="N2C_0" departPos="12.10" departSpeed="0.00" departDelay="0.00" arrival="193.00" arrivalLane="C2S_1" arrivalPos="489.60" arrivalSpeed="13.82" duration="80.00" routeLength="987.90" waitingTime="0.00" waitingCount="0" stopTime="0.00" timeLoss="8.04" rerouteNo="0" devices="tripinfo_flow_off_N2S.6 routing_flow_off_N2S.6 emissions_flow_off_N2S.6" vType="bus" speedFactor="1.00" vaporized="">
        <emissions CO_abs="194.59" CO2_abs="1054092.98" HC_abs="18.81" PMx_abs="126.23" NOx_abs="412.30" fuel_abs="338748.09" electricity_abs="0.00"/>
    </tripinfo>
    <tripinfo id="flow_off_N2S.5" depart="77.00" departLane="N2C_0" departPos="5.10" departSpeed="0.00" departDelay="0.00" arrival="194.00" arrivalLane="C2S_0" arrivalPos="489.60" arrivalSpeed="13.31" duration="117.00" routeLength="994.90" waitingTime="36.00" waitingCount="1" stopTime="0.00" timeLoss="47.49" rerouteNo="0" devices="tripinfo_flow_off_N2S.5 routing_flow_off_N2S.5 emissions_flow_off_N2S.5" vType="car" speedFactor="1.04" vaporized="">
        <emissions CO_abs="1344.21" CO2_abs="267069.46" HC_abs="8.96" PMx_abs="20.64" NOx_abs="95.35" fuel_abs="86580.52" electricity_abs="0.00"/>
    </tripinfo>
    <tripinfo id="flow_off_S2N.5" depart="96.00" departLane="S2C_0" departPos="5.10" departSpeed="0.00" departDelay="0.00" arrival="196.00" arrivalLane="C2N_0" arrivalPos="489.60" arrivalSpeed="13.12" duration="100.00" routeLength="994.90" waitingTime="14.00" waitingCount="1" stopTime="0.00" timeLoss="26.95" rerouteNo="0" devices="tripinfo_flow_off_S2N.5 routing_flow_off_S2N.5 emissions_flow_off_S2N.5" vType="car" speedFactor="0.99" vaporized="">
        <emissions CO_abs="1172.18" CO2_abs="230408.61" HC_abs="7.82" PMx_abs="21.08" NOx_abs="80.08" fuel_abs="74695.45" electricity_abs="0.00"/>
    </tripinfo>
    <tripinfo id="flow_off_S2N.3" depart="73.00" departLane="S2C_0" departPos="12.10" departSpeed="0.00" departDelay="0.00" arrival="199.00" arrivalLane="C2N_0" arrivalPos="489.60" arrivalSpeed="13.60" duration="126.00" routeLength="987.90" waitingTime="36.00" waitingCount="1" stopTime="0.00" timeLoss="53.95" rerouteNo="0" devices="tripinfo_flow_off_S2N.3 routing_flow_off_S2N.3 emissions_flow_off_S2N.3" vType="bus" speedFactor="1.00" vaporized="">
        <emissions CO_abs="306.06" CO2_abs="1381770.38" HC_abs="25.69" PMx_abs="184.52" NOx_abs="593.99" fuel_abs="444056.94" electricity_abs="0.00"/>
    </tripinfo>
    <tripinfo id="flow_off_S2N.6" depart="101.00" departLane="S2C_0" departPos="2.10" departSpeed="0.00" departDelay="0.00" arrival="199.00" arrivalLane="C2N_1" arrivalPos="489.60" arrivalSpeed="11.72" duration="98.00" routeLength="997.90" waitingTime="10.00" waitingCount="1" stopTime="0.00" timeLoss="24.48" rerouteNo="0" devices="tripinfo_flow_off_S2N.6 routing_flow_off_S2N.6 emissions_flow_off_S2N.6" vType="moto" speedFactor="0.98" vaporized="">
        <emissions CO_abs="3692.12" CO2_abs="141126.42" HC_abs="1760.13" PMx_abs="35.75" NOx_abs="178.14" fuel_abs="45761.21" electricity_abs="0.00"/>
    </tripinfo>
    <tripinfo id="flow_off_S2N.7" depart="106.00" departLane="S2C_0" departPos="12.10" departSpeed="0.00" departDelay="0.00" arrival="201.00" arrivalLane="C2N_0" arrivalPos="489.60" arrivalSpeed="13.74" duration="95.00" routeLength="987.90" waitingTime="3.00" waitingCount="1" stopTime="0.00" timeLoss="23.24" rerouteNo="0" devices="tripinfo_flow_off_S2N.7 routing_flow_off_S2N.7 emissions_flow_off_S2N.7" vType="bus" speedFactor="1.00" vaporized="">
        <emissions CO_abs="246.18" CO2_abs="1251911.70" HC_abs="22.13" PMx_abs="149.93" NOx_abs="485.30" fuel_abs="402321.61" electricity_abs="0.00"/>
    </tripinfo>
    <tripinfo id="flow_off_N2S.7" depart="120.00" departLane="N2C_0" departPos="15.10" departSpeed="0.00" departDelay="0.00" arrival="205.00" arrivalLane="C2S_0" arrivalPos="489.60" arrivalSpeed="12.64" duration="85.00" routeLength="984.90" waitingTime="0.00" waitingCount="0" stopTime="0.00" timeLoss="9.64" rerouteNo="0" devices="tripinfo_flow_off_N2S.7 routing_flow_off_N2S.7 emissions_flow_off_N2S.7" vType="truck" speedFactor="0.94" vaporized="">
        <emissions CO_abs="110.64" CO2_abs="405137.44" HC_abs="9.68" PMx_abs="130.99" NOx_abs="223.98" fuel_abs="130209.77" electricity_abs="0.00"/>
    </tripinfo>
    <tripinfo id="flow_off_S2N.4" depart="93.00" departLane="S2C_0" departPos="5.10" departSpeed="0.00" departDelay="0.00" arrival="211.00" arrivalLane="C2N_0" arrivalPos="489.60" arrivalSpeed="10.66" duration="118.00" routeLength="994.90" waitingTime="9.00" waitingCount="1" stopTime="0.00" timeLoss="24.27" rerouteNo="0" devices="tripinfo_flow_off_S2N.4 routing_flow_off_S2N.4 emissions_flow_off_S2N.4" vType="car" speedFactor="0.77" vaporized="">
        <emissions CO_abs="834.08" CO2_abs="230208.67" HC_abs="5.55" PMx_abs="19.40" NOx_abs="77.88" fuel_abs="74630.74" electricity_abs="0.00"/>
    </tripinfo>
    <tripinfo id="flow_off_N2S.8" depart="124.00" departLane="N2C_0" departPos="2.10" departSpeed="0.00" departDelay="0.00" arrival="219.00" arrivalLane="C2S_0" arrivalPos="489.60" arrivalSpeed="9.99" duration="95.00" routeLength="997.90" waitingTime="0.00" waitingCount="0" stopTime="0.00" timeLoss="10.89" rerouteNo="0" devices="tripinfo_flow_off_N2S.8 routing_flow_off_N2S.8 emissions_flow_off_N2S.8" vType="moto" speedFactor="0.86" vaporized="">
        <emissions CO_abs="2745.78" CO2_abs="115134.98" HC_abs="1421.68" PMx_abs="29.15" NOx_abs="145.08" fuel_abs="37333.33" electricity_abs="0.00"/>
    </tripinfo>
    <tripinfo id="flow_off_N2S.9" depart="141.00" departLane="N2C_0" departPos="5.10" departSpeed="0.00" departDelay="0.00" arrival="223.00" arrivalLane="C2S_0" arrivalPos="489.60" arrivalSpeed="13.30" duration="82.00" routeLength="994.90" waitingTime="0.00" waitingCount="0" stopTime="0.00" timeLoss="6.98" rerouteNo="0" devices="tripinfo_flow_off_N2S.9 routing_flow_off_N2S.9 emissions_flow_off_N2S.9" vType="car" speedFactor="0.96" vaporized="">
        <emissions CO_abs="942.38" CO2_abs="180626.91" HC_abs="6.32" PMx_abs="21.46" NOx_abs="63.04" fuel_abs="58557.00" electricity_abs="0.00"/>
    </tripinfo>
    <tripinfo id="flow_off_S2N.8" depart="143.00" departLane="S2C_0" departPos="2.10" departSpeed="0.00" departDelay="0.00" arrival="224.00" arrivalLane="C2N_0" arrivalPos="489.60" arrivalSpeed="13.04" duration="81.00" routeLength="997.90" waitingTime="0.00" waitingCount="0" stopTime="0.00" timeLoss="7.83" rerouteNo="0" devices="tripinfo_flow_off_S2N.8 routing_flow_off_S2N.8 emissions_flow_off_S2N.8" vType="moto" speedFactor="0.98" vaporized="">
        <emissions CO_abs="3727.41" CO2_abs="114213.45" HC_abs="1363.55" PMx_abs="27.38" NOx_abs="165.58" fuel_abs="37034.31" electricity_abs="0.00"/>
    </tripinfo>
    <tripinfo id="flow_off_E2W.6" depart="122.00" departLane="E2C_0" departPos="5.10" departSpeed="0.00" departDelay="0.00" arrival="230.00" arrivalLane="C2W_0" arrivalPos="489.60" arrivalSpeed="14.04" duration="108.00" routeLength="994.90" waitingTime="29.00" waitingCount="1" stopTime="0.00" timeLoss="42.14" rerouteNo="0" devices="tripinfo_flow_off_E2W.6 routing_flow_off_E2W.6 emissions_flow_off_E2W.6" vType="car" speedFactor="1.10" vaporized="">
        <emissions CO_abs="1458.56" CO2_abs="267097.57" HC_abs="9.74" PMx_abs="23.09" NOx_abs="95.43" fuel_abs="86589.67" electricity_abs="0.00"/>
    </tripinfo>
    <tripinfo id="flow_off_W2E.3" depart="112.00" departLane="W2C_0" departPos="5.10" departSpeed="0.00" departDelay="0.00" arrival="233.00" arrivalLane="C2E_0" arrivalPos="489.60" arrivalSpeed="13.56" duration="121.00" routeLength="994.90" waitingTime="35.00" waitingCount="1" stopTime="0.00" timeLoss="48.25" rerouteNo="0" devices="tripinfo_flow_off_W2E.3 routing_flow_off_W2E.3 emissions_flow_off_W2E.3" vType="car" speedFactor="0.99" vaporized="">
        <emissions CO_abs="1148.48" CO2_abs="261261.73" HC_abs="7.67" PMx_abs="20.93" NOx_abs="93.03" fuel_abs="84697.89" electricity_abs="0.00"/>
    </tripinfo>
    <tripinfo id="flow_off_E2W.7" depart="131.00" departLane="E2C_0" departPos="12.10" departSpeed="0.00" departDelay="0.00" arrival="237.00" arrivalLane="C2W_1" arrivalPos="489.60" arrivalSpeed="13.40" duration="106.00" routeLength="987.90" waitingTime="16.00" waitingCount="1" stopTime="0.00" timeLoss="34.67" rerouteNo="0" devices="tripinfo_flow_off_E2W.7 routing_flow_off_E2W.7 emissions_flow_off_E2W.7" vType="bus" speedFactor="1.00" vaporized="">
        <emissions CO_abs="265.30" CO2_abs="1265387.69" HC_abs="23.08" PMx_abs="162.79" NOx_abs="523.40" fuel_abs="406652.98" electricity_abs="0.00"/>
    </tripinfo>
    <tripinfo id="flow_off_E2W.5" depart="112.00" departLane="E2C_0" departPos="15.10" departSpeed="0.00" departDelay="0.00" arrival="238.00" arrivalLane="C2W_0" arrivalPos="489.60" arrivalSpeed="13.64" duration="126.00" routeLength="984.90" waitingTime="34.00" waitingCount="1" stopTime="0.00" timeLoss="54.90" rerouteNo="0" devices="tripinfo_flow_off_E2W.5 routing_flow_off_E2W.5 emissions_flow_off_E2W.5" vType="truck" speedFactor="1.01" vaporized="">
        <emissions CO_abs="169.64" CO2_abs="559091.83" HC_abs="14.15" PMx_abs="193.84" NOx_abs="244.53" fuel_abs="179683.06" electricity_abs="0.00"/>
    </tripinfo>
    <tripinfo id="flow_off_E2W.8" depart="156.00" departLane="E2C_0" departPos="5.10" departSpeed="0.00" departDelay="0.00" arrival="239.00" arrivalLane="C2W_1" arrivalPos="489.60" arrivalSpeed="14.66" duration="83.00" routeLength="994.90" waitingTime="0.00" waitingCount="0" stopTime="0.00" timeLoss="20.09" rerouteNo="0" devices="tripinfo_flow_off_E2W.8 routing_flow_off_E2W.8 emissions_flow_off_E2W.8" vType="car" speedFactor="1.14" vaporized="">
        <emissions CO_abs="1421.89" CO2_abs="224704.53" HC_abs="9.49" PMx_abs="22.34" NOx_abs="78.31" fuel_abs="72845.99" electricity_abs="0.00"/>
    </tripinfo>
    <tripinfo id="flow_off_E2W.9" depart="172.00" departLane="E2C_0" departPos="5.10" departSpeed="0.00" departDelay="0.00" arrival="240.00" arrivalLane="C2W_0" arrivalPos="489.60" arrivalSpeed="16.04" duration="68.00" routeLength="994.90" waitingTime="0.00" waitingCount="0" stopTime="0.00" timeLoss="6.32" rerouteNo="0" devices="tripinfo_flow_off_E2W.9 routing_flow_off_E2W.9 emissions_flow_off_E2W.9" vType="car" speedFactor="1.17" vaporized="">
        <emissions CO_abs="1370.53" CO2_abs="186957.80" HC_abs="9.20" PMx_abs="22.76" NOx_abs="66.94" fuel_abs="60609.17" electricity_abs="0.00"/>
    </tripinfo>
    <tripinfo id="flow_off_E2W.10" depart="186.00" departLane="E2C_0" departPos="5.10" departSpeed="0.00" departDelay="0.00" arrival="259.00" arrivalLane="C2W_0" arrivalPos="489.60" arrivalSpeed="13.82" duration="73.00" routeLength="994.90" waitingTime="0.00" waitingCount="0" stopTime="0.00" timeLoss="6.24" rerouteNo="0" devices="tripinfo_flow_off_E2W.10 routing_flow_off_E2W.10 emissions_flow_off_E2W.10" vType="car" speedFactor="1.07" vaporized="">
        <emissions CO_abs="1141.73" CO2_abs="177531.62" HC_abs="7.66" PMx_abs="21.22" NOx_abs="62.66" fuel_abs="57553.40" electricity_abs="0.00"/>
    </tripinfo>
    <tripinfo id="flow_off_N2S.10" depart="183.00" departLane="N2C_0" departPos="5.10" departSpeed="0.00" departDelay="0.00" arrival="273.00" arrivalLane="C2S_0" arrivalPos="489.60" arrivalSpeed="12.48" duration="90.00" routeLength="994.90" waitingTime="3.00" waitingCount="1" stopTime="0.00" timeLoss="15.40" rerouteNo="0" devices="tripinfo_flow_off_N2S.10 routing_flow_off_N2S.10 emissions_flow_off_N2S.10" vType="car" speedFactor="0.96" vaporized="">
        <emissions CO_abs="1119.30" CO2_abs="210148.41" HC_abs="7.47" PMx_abs="20.40" NOx_abs="71.81" fuel_abs="68127.24" electricity_abs="0.00"/>
    </tripinfo>
    <tripinfo id="flow_off_S2N.11" depart="187.00" departLane="S2C_0" departPos="2.10" departSpeed="0.00" departDelay="0.00" arrival="273.00" arrivalLane="C2N_0" arrivalPos="489.60" arrivalSpeed="13.44" duration="86.00" routeLength="997.90" waitingTime="5.00" waitingCount="1" stopTime="0.00" timeLoss="16.97" rerouteNo="0" devices="tripinfo_flow_off_S2N.11 routing_flow_off_S2N.11 emissions_flow_off_S2N.11" vType="moto" speedFactor="1.05" vaporized="">
        <emissions CO_abs="4521.94" CO2_abs="139824.30" HC_abs="1693.89" PMx_abs="34.39" NOx_abs="192.12" fuel_abs="45338.89" electricity_abs="0.00"/>
    </tripinfo>
    <tripinfo id="flow_off_S2N.9" depart="149.00" departLane="S2C_0" departPos="15.10" departSpeed="0.00" departDelay="0.00" arrival="277.00" arrivalLane="C2N_1" arrivalPos="489.60" arrivalSpeed="13.81" duration="128.00" routeLength="984.90" waitingTime="37.00" waitingCount="1" stopTime="0.00" timeLoss="57.05" rerouteNo="0" devices="tripinfo_flow_off_S2N.9 routing_flow_off_S2N.9 emissions_flow_off_S2N.9" vType="truck" speedFactor="1.01" vaporized="">
        <emissions CO_abs="170.44" CO2_abs="563757.85" HC_abs="14.20" PMx_abs="193.38" NOx_abs="240.40" fuel_abs="181181.97" electricity_abs="0.00"/>
    </tripinfo>
    <tripinfo id="flow_off_S2N.10" depart="153.00" departLane="S2C_0" departPos="5.10" departSpeed="0.00" departDelay="2.00" arrival="277.00" arrivalLane="C2N_0" arrivalPos="489.60" arrivalSpeed="11.19" duration="124.00" routeLength="994.90" waitingTime="31.00" waitingCount="1" stopTime="0.00" timeLoss="43.00" rerouteNo="0" devices="tripinfo_flow_off_S2N.10 routing_flow_off_S2N.10 emissions_flow_off_S2N.10" vType="car" speedFactor="0.89" vaporized="">
        <emissions CO_abs="869.03" CO2_abs="247531.50" HC_abs="5.81" PMx_abs="21.60" NOx_abs="87.55" fuel_abs="80246.87" electricity_abs="0.00"/>
    </tripinfo>
    <tripinfo id="flow_off_S2N.12" depart="200.00" departLane="S2C_0" departPos="2.10" departSpeed="0.00" departDelay="0.00" arrival="281.00" arrivalLane="C2N_0" arrivalPos="489.60" arrivalSpeed="12.40" duration="81.00" routeLength="997.90" waitingTime="0.00" waitingCount="0" stopTime="0.00" timeLoss="8.65" rerouteNo="0" devices="tripinfo_flow_off_S2N.12 routing_flow_off_S2N.12 emissions_flow_off_S2N.12" vType="moto" speedFactor="0.99" vaporized="">
        <emissions CO_abs="3741.07" CO2_abs="114893.19" HC_abs="1377.98" PMx_abs="27.79" NOx_abs="164.63" fuel_abs="37254.76" electricity_abs="0.00"/>
    </tripinfo>
    <tripinfo id="flow_off_E2W.11" depart="225.00" departLane="E2C_0" departPos="2.10" departSpeed="0.00" departDelay="0.00" arrival="304.00" arrivalLane="C2W_0" arrivalPos="489.60" arrivalSpeed="15.02" duration="79.00" routeLength="997.90" waitingTime="5.00" waitingCount="1" stopTime="0.00" timeLoss="17.34" rerouteNo="0" devices="tripinfo_flow_off_E2W.11 routing_flow_off_E2W.11 emissions_flow_off_E2W.11" vType="moto" speedFactor="1.17" vaporized="">
        <emissions CO_abs="5582.76" CO2_abs="140062.94" HC_abs="1638.20" PMx_abs="33.12" NOx_abs="207.97" fuel_abs="45416.14" electricity_abs="0.00"/>
    </tripinfo>
    <tripinfo id="flow_off_W2E.5" depart="237.00" departLane="W2C_0" departPos="5.10" departSpeed="0.00" departDelay="0.00" arrival="305.00" arrivalLane="C2E_1" arrivalPos="489.60" arrivalSpeed="15.21" duration="68.00" routeLength="994.90" waitingTime="0.00" waitingCount="0" stopTime="0.00" timeLoss="5.77" rerouteNo="0" devices="tripinfo_flow_off_W2E.5 routing_flow_off_W2E.5 emissions_flow_off_W2E.5" vType="car" speedFactor="1.16" vaporized="">
        <emissions CO_abs="1406.03" CO2_abs="188341.24" HC_abs="9.44" PMx_abs="22.62" NOx_abs="67.47" fuel_abs="61057.63" electricity_abs="0.00"/>
    </tripinfo>
    <tripinfo id="flow_off_W2E.6" depart="240.00" departLane="W2C_0" departPos="5.10" departSpeed="0.00" departDelay="1.00" arrival="308.00" arrivalLane="C2E_1" arrivalPos="489.60" arrivalSpeed="15.60" duration="68.00" routeLength="994.90" waitingTime="0.00" waitingCount="0" stopTime="0.00" timeLoss="5.65" rerouteNo="0" devices="tripinfo_flow_off_W2E.6 routing_flow_off_W2E.6 emissions_flow_off_W2E.6" vType="car" speedFactor="1.15" vaporized="">
        <emissions CO_abs="1216.23" CO2_abs="177412.17" HC_abs="8.18" PMx_abs="22.91" NOx_abs="63.17" fuel_abs="57514.70" electricity_abs="0.00"/>
    </tripinfo>
    <tripinfo id="flow_off_W2E.4" depart="203.00" departLane="W2C_0" departPos="2.10" departSpeed="0.00" departDelay="0.00" arrival="309.00" arrivalLane="C2E_0" arrivalPos="489.60" arrivalSpeed="12.11" duration="106.00" routeLength="997.90" waitingTime="21.00" waitingCount="1" stopTime="0.00" timeLoss="34.61" rerouteNo="0" devices="tripinfo_flow_off_W2E.4 routing_flow_off_W2E.4 emissions_flow_off_W2E.4" vType="moto" speedFactor="1.01" vaporized="">
        <emissions CO_abs="3903.60" CO2_abs="150393.99" HC_abs="1903.76" PMx_abs="38.67" NOx_abs="184.04" fuel_abs="48766.41" electricity_abs="0.00"/>
    </tripinfo>
    <tripinfo id="flow_off_E2W.12" depart="239.00" departLane="E2C_0" departPos="5.10" departSpeed="0.00" departDelay="0.00" arrival="318.00" arrivalLane="C2W_0" arrivalPos="489.60" arrivalSpeed="13.52" duration="79.00" routeLength="994.90" waitingTime="0.00" waitingCount="0" stopTime="0.00" timeLoss="6.58" rerouteNo="0" devices="tripinfo_flow_off_E2W.12 routing_flow_off_E2W.12 emissions_flow_off_E2W.12" vType="car" speedFactor="1.00" vaporized="">
        <emissions CO_abs="996.11" CO2_abs="180583.08" HC_abs="6.69" PMx_abs="21.99" NOx_abs="63.32" fuel_abs="58542.77" electricity_abs="0.00"/>
    </tripinfo>
    <tripinfo id="flow_off_E2W.13" depart="253.00" departLane="E2C_0" departPos="5.10" departSpeed="0.00" departDelay="0.00" arrival="333.00" arrivalLane="C2W_0" arrivalPos="489.60" arrivalSpeed="12.95" duration="80.00" routeLength="994.90" waitingTime="0.00" waitingCount="0" stopTime="0.00" timeLoss="6.62" rerouteNo="0" devices="tripinfo_flow_off_E2W.13 routing_flow_off_E2W.13 emissions_flow_off_E2W.13" vType="car" speedFactor="0.99" vaporized="">
        <emissions CO_abs="1031.53" CO2_abs="184795.90" HC_abs="6.91" PMx_abs="21.92" NOx_abs="64.72" fuel_abs="59908.49" electricity_abs="0.00"/>
    </tripinfo>
    <tripinfo id="flow_off_S2N.13" depart="250.00" departLane="S2C_0" departPos="2.10" departSpeed="0.00" departDelay="0.00" arrival="347.00" arrivalLane="C2N_0" arrivalPos="489.60" arrivalSpeed="13.67" duration="97.00" routeLength="997.90" waitingTime="18.00" waitingCount="1" stopTime="0.00" timeLoss="28.62" rerouteNo="0" devices="tripinfo_flow_off_S2N.13 routing_flow_off_S2N.13 emissions_flow_off_S2N.13" vType="moto" speedFactor="1.06" vaporized="">
        <emissions CO_abs="4536.12" CO2_abs="150135.94" HC_abs="1865.97" PMx_abs="37.43" NOx_abs="199.01" fuel_abs="48682.53" electricity_abs="0.00"/>
    </tripinfo>