<?xml version="1.0" encoding="UTF-8"?>

<!-- generated on 2026-05-03T09:23:57.631038+07:00 by Eclipse SUMO libsumo 1.26.0
<libsumoConfiguration xmlns:xsi="http://www.w3.org/2001/XMLSchema-instance" xsi:noNamespaceSchemaLocation="http://sumo.dlr.de/xsd/libsumoConfiguration.xsd">

    <input>
        <net-file value="sumo/network.net.xml"/>
        <route-files value="sumo/routes.rou.xml"/>
        <additional-files value="sumo/tls.add.xml,sumo/traffic.add.xml"/>
    </input>

    <output>
        <tripinfo-output value="C:\Users\DELL\Downloads\project\runs\exp_20260503_084859\evaluation\tripinfo_rl.xml"/>
        <tripinfo-output.write-unfinished value="true"/>
    </output>

    <time>
        <begin value="0"/>
        <end value="7200"/>
    </time>

    <processing>
        <time-to-teleport value="300"/>
        <waiting-time-memory value="10000"/>
    </processing>

    <report>
        <verbose value="false"/>
        <no-warnings value="true"/>
        <no-step-log value="true"/>
    </report>

    <emissions>
        <device.emissions.probability value="1.0"/>
    </emissions>

    <random_number>
        <seed value="43"/>
    </random_number>

</libsumoConfiguration>
-->

<tripinfos xmlns:xsi="http://www.w3.org/2001/XMLSchema-instance" xsi:noNamespaceSchemaLocation="http://sumo.dlr.de/xsd/tripinfo_file.xsd">
    <tripinfo id="flow_off_W2E.0" depart="5.00" departLane="W2C_0" departPos="5.10" departSpeed="0.00" departDelay="0.00" arrival="82.00" arrivalLane="C2E_0" arrivalPos="489.60" arrivalSpeed="13.26" duration="77.00" routeLength="994.90" waitingTime="0.00" waitingCount="0" stopTime="0.00" timeLoss="6.10" rerouteNo="0" devices="tripinfo_flow_off_W2E.0 routing_flow_off_W2E.0 emissions_flow_off_W2E.0" vType="car" speedFactor="1.01" vaporized="">
        <emissions CO_abs="1080.19" CO2_abs="184323.76" HC_abs="7.25" PMx_abs="21.97" NOx_abs="64.68" fuel_abs="59755.39" electricity_abs="0.00"/>
    </tripinfo>
    <tripinfo id="flow_off_N2S.1" depart="15.00" departLane="N2C_0" departPos="5.10" departSpeed="0.00" departDelay="0.00" arrival="93.00" arrivalLane="C2S_1" arrivalPos="489.60" arrivalSpeed="13.00" duration="78.00" routeLength="994.90" waitingTime="0.00" waitingCount="0" stopTime="0.00" timeLoss="6.94" rerouteNo="0" devices="tripinfo_flow_off_N2S.1 routing_flow_off_N2S.1 emissions_flow_off_N2S.1" vType="car" speedFactor="1.01" vaporized="">
        <emissions CO_abs="1047.68" CO2_abs="183696.38" HC_abs="7.02" PMx_abs="21.91" NOx_abs="64.39" fuel_abs="59552.02" electricity_abs="0.00"/>
    </tripinfo>
    <tripinfo id="flow_off_N2S.0" depart="4.00" departLane="N2C_0" departPos="5.10" departSpeed="0.00" departDelay="0.00" arrival="94.00" arrivalLane="C2S_0" arrivalPos="489.60" arrivalSpeed="13.97" duration="90.00" routeLength="994.90" waitingTime="9.00" waitingCount="1" stopTime="0.00" timeLoss="19.92" rerouteNo="0" devices="tripinfo_flow_off_N2S.0 routing_flow_off_N2S.0 emissions_flow_off_N2S.0" vType="car" speedFactor="1.03" vaporized="">
        <emissions CO_abs="1203.57" CO2_abs="219403.43" HC_abs="8.05" PMx_abs="22.04" NOx_abs="76.42" fuel_abs="71127.72" electricity_abs="0.00"/>
    </tripinfo>
    <tripinfo id="flow_off_S2N.0" depart="3.00" departLane="S2C_0" departPos="5.10" departSpeed="0.00" departDelay="0.00" arrival="97.00" arrivalLane="C2N_0" arrivalPos="489.60" arrivalSpeed="12.49" duration="94.00" routeLength="994.90" waitingTime="5.00" waitingCount="1" stopTime="0.00" timeLoss="18.15" rerouteNo="0" devices="tripinfo_flow_off_S2N.0 routing_flow_off_S2N.0 emissions_flow_off_S2N.0" vType="car" speedFactor="0.95" vaporized="">
        <emissions CO_abs="1052.84" CO2_abs="214021.75" HC_abs="7.03" PMx_abs="21.09" NOx_abs="73.90" fuel_abs="69383.01" electricity_abs="0.00"/>
    </tripinfo>
    <tripinfo id="flow_off_S2N.1" depart="29.00" departLane="S2C_0" departPos="5.10" departSpeed="0.00" departDelay="0.00" arrival="101.00" arrivalLane="C2N_0" arrivalPos="489.60" arrivalSpeed="14.22" duration="72.00" routeLength="994.90" waitingTime="0.00" waitingCount="0" stopTime="0.00" timeLoss="5.59" rerouteNo="0" devices="tripinfo_flow_off_S2N.1 routing_flow_off_S2N.1 emissions_flow_off_S2N.1" vType="car" speedFactor="1.08" vaporized="">
        <emissions CO_abs="1123.11" CO2_abs="177083.05" HC_abs="7.55" PMx_abs="22.36" NOx_abs="62.64" fuel_abs="57408.04" electricity_abs="0.00"/>
    </tripinfo>
    <tripinfo id="flow_off_E2W.0" depart="41.00" departLane="E2C_0" departPos="5.10" departSpeed="0.00" departDelay="0.00" arrival="129.00" arrivalLane="C2W_0" arrivalPos="489.60" arrivalSpeed="12.11" duration="88.00" routeLength="994.90" waitingTime="1.00" waitingCount="1" stopTime="0.00" timeLoss="12.62" rerouteNo="0" devices="tripinfo_flow_off_E2W.0 routing_flow_off_E2W.0 emissions_flow_off_E2W.0" vType="car" speedFactor="0.96" vaporized="">
        <emissions CO_abs="1017.94" CO2_abs="200582.19" HC_abs="6.81" PMx_abs="21.03" NOx_abs="68.31" fuel_abs="65026.05" electricity_abs="0.00"/>
    </tripinfo>
    <tripinfo id="flow_off_N2S.3" depart="51.00" departLane="N2C_0" departPos="5.10" departSpeed="0.00" departDelay="0.00" arrival="142.00" arrivalLane="C2S_0" arrivalPos="489.60" arrivalSpeed="13.30" duration="91.00" routeLength="994.90" waitingTime="8.00" waitingCount="1" stopTime="0.00" timeLoss="21.23" rerouteNo="0" devices="tripinfo_flow_off_N2S.3 routing_flow_off_N2S.3 emissions_flow_off_N2S.3" vType="car" speedFactor="1.03" vaporized="">
        <emissions CO_abs="1228.48" CO2_abs="223738.76" HC_abs="8.21" PMx_abs="21.99" NOx_abs="77.55" fuel_abs="72533.11" electricity_abs="0.00"/>
    </tripinfo>
    <tripinfo id="flow_off_S2N.2" depart="60.00" departLane="S2C_0" departPos="5.10" departSpeed="0.00" departDelay="0.00" arrival="142.00" arrivalLane="C2N_0" arrivalPos="489.60" arrivalSpeed="12.58" duration="82.00" routeLength="994.90" waitingTime="0.00" waitingCount="0" stopTime="0.00" timeLoss="7.77" rerouteNo="0" devices="tripinfo_flow_off_S2N.2 routing_flow_off_S2N.2 emissions_flow_off_S2N.2" vType="car" speedFactor="0.97" vaporized="">
        <emissions CO_abs="1065.39" CO2_abs="192592.10" HC_abs="7.13" PMx_abs="21.49" NOx_abs="66.83" fuel_abs="62435.86" electricity_abs="0.00"/>
    </tripinfo>
    <tripinfo id="flow_off_N2S.4" depart="62.00" departLane="N2C_0" departPos="2.10" departSpeed="0.00" departDelay="0.00" arrival="142.00" arrivalLane="C2S_1" arrivalPos="489.60" arrivalSpeed="14.99" duration="80.00" routeLength="997.90" waitingTime="2.00" waitingCount="1" stopTime="0.00" timeLoss="14.89" rerouteNo="0" devices="tripinfo_flow_off_N2S.4 routing_flow_off_N2S.4 emissions_flow_off_N2S.4" vType="moto" speedFactor="1.10" vaporized="">
        <emissions CO_abs="4950.59" CO2_abs="135198.80" HC_abs="1583.87" PMx_abs="31.77" NOx_abs="200.11" fuel_abs="43838.85" electricity_abs="0.00"/>
    </tripinfo>
    <tripinfo id="flow_off_N2S.2" depart="44.00" departLane="N2C_0" departPos="5.10" departSpeed="0.00" departDelay="0.00" arrival="151.00" arrivalLane="C2S_0" arrivalPos="489.60" arrivalSpeed="11.50" duration="107.00" routeLength="994.90" waitingTime="9.00" waitingCount="1" stopTime="0.00" timeLoss="20.40" rerouteNo="0" devices="tripinfo_flow_off_N2S.2 routing_flow_off_N2S.2 emissions_flow_off_N2S.2" vType="car" speedFactor="0.83" vaporized="">
        <emissions CO_abs="893.21" CO2_abs="226105.97" HC_abs="5.96" PMx_abs="21.37" NOx_abs="77.37" fuel_abs="73300.75" electricity_abs="0.00"/>
    </tripinfo>
    <tripinfo id="flow_off_E2W.2" depart="76.00" departLane="E2C_0" departPos="15.10" departSpeed="0.00" departDelay="0.00" arrival="154.00" arrivalLane="C2W_0" arrivalPos="489.60" arrivalSpeed="14.74" duration="78.00" routeLength="984.90" waitingTime="0.00" waitingCount="0" stopTime="0.00" timeLoss="11.57" rerouteNo="0" devices="tripinfo_flow_off_E2W.2 routing_flow_off_E2W.2 emissions_flow_off_E2W.2" vType="truck" speedFactor="1.10" vaporized="">
        <emissions CO_abs="116.29" CO2_abs="485815.79" HC_abs="10.56" PMx_abs="134.78" NOx_abs="249.26" fuel_abs="156140.66" electricity_abs="0.00"/>
    </tripinfo>
    <tripinfo id="flow_off_W2E.2" depart="85.00" departLane="W2C_0" departPos="5.10" departSpeed="0.00" departDelay="0.00" arrival="165.00" arrivalLane="C2E_1" arrivalPos="489.60" arrivalSpeed="13.37" duration="80.00" routeLength="994.90" waitingTime="0.00" waitingCount="0" stopTime="0.00" timeLoss="6.44" rerouteNo="0" devices="tripinfo_flow_off_W2E.2 routing_flow_off_W2E.2 emissions_flow_off_W2E.2" vType="car" speedFactor="0.98" vaporized="">
        <emissions CO_abs="974.49" CO2_abs="177466.82" HC_abs="6.53" PMx_abs="21.00" NOx_abs="61.98" fuel_abs="57532.50" electricity_abs="0.00"/>
    </tripinfo>
    <tripinfo id="flow_off_E2W.1" depart="66.00" departLane="E2C_0" departPos="15.10" departSpeed="0.00" departDelay="0.00" arrival="167.00" arrivalLane="C2W_0" arrivalPos="489.60" arrivalSpeed="12.54" duration="101.00" routeLength="984.90" waitingTime="4.00" waitingCount="1" stopTime="0.00" timeLoss="24.03" rerouteNo="0" devices="tripinfo_flow_off_E2W.1 routing_flow_off_E2W.1 emissions_flow_off_E2W.1" vType="truck" speedFactor="0.93" vaporized="">
        <emissions CO_abs="136.92" CO2_abs="471390.77" HC_abs="11.26" PMx_abs="147.30" NOx_abs="228.31" fuel_abs="151498.65" electricity_abs="0.00"/>
    </tripinfo>
    <tripinfo id="flow_off_W2E.1" depart="53.00" departLane="W2C_0" departPos="2.10" departSpeed="0.00" departDelay="0.00" arrival="168.00" arrivalLane="C2E_0" arrivalPos="489.60" arrivalSpeed="10.06" duration="115.00" routeLength="997.90" waitingTime="14.00" waitingCount="1" stopTime="0.00" timeLoss="26.91" rerouteNo="0" devices="tripinfo_flow_off_W2E.1 routing_flow_off_W2E.1 emissions_flow_off_W2E.1" vType="moto" speedFactor="0.82" vaporized="">
        <emissions CO_abs="2637.80" CO2_abs="146887.43" HC_abs="1888.96" PMx_abs="39.17" NOx_abs="159.01" fuel_abs="47629.57" electricity_abs="0.00"/>
    </tripinfo>
    <tripinfo id="flow_off_N2S.5" depart="77.00" departLane="N2C_0" departPos="5.10" departSpeed="0.00" departDelay="0.00" arrival="174.00" arrivalLane="C2S_0" arrivalPos="489.60" arrivalSpeed="14.36" duration="97.00" routeLength="994.90" waitingTime="16.00" waitingCount="1" stopTime="0.00" timeLoss="27.25" rerouteNo="0" devices="tripinfo_flow_off_N2S.5 routing_flow_off_N2S.5 emissions_flow_off_N2S.5" vType="car" speedFactor="1.04" vaporized="">
        <emissions CO_abs="1240.16" CO2_abs="236569.12" HC_abs="8.30" PMx_abs="23.31" NOx_abs="83.28" fuel_abs="76692.66" electricity_abs="0.00"/>
    </tripinfo>
    <tripinfo id="flow_off_S2N.5" depart="96.00" departLane="S2C_0" departPos="5.10" departSpeed="0.00" departDelay="0.00" arrival="175.00" arrivalLane="C2N_0" arrivalPos="489.60" arrivalSpeed="12.53" duration="79.00" routeLength="994.90" waitingTime="0.00" waitingCount="0" stopTime="0.00" timeLoss="6.61" rerouteNo="0" devices="tripinfo_flow_off_S2N.5 routing_flow_off_S2N.5 emissions_flow_off_S2N.5" vType="car" speedFactor="0.99" vaporized="">
        <emissions CO_abs="1055.79" CO2_abs="183293.18" HC_abs="7.07" PMx_abs="21.07" NOx_abs="64.01" fuel_abs="59421.27" electricity_abs="0.00"/>
    </tripinfo>
    <tripinfo id="flow_off_S2N.3" depart="73.00" departLane="S2C_0" departPos="12.10" departSpeed="0.00" departDelay="0.00" arrival="178.00" arrivalLane="C2N_0" arrivalPos="489.60" arrivalSpeed="13.76" duration="105.00" routeLength="987.90" waitingTime="16.00" waitingCount="1" stopTime="0.00" timeLoss="33.62" rerouteNo="0" devices="tripinfo_flow_off_S2N.3 routing_flow_off_S2N.3 emissions_flow_off_S2N.3" vType="bus" speedFactor="1.00" vaporized="">
        <emissions CO_abs="258.43" CO2_abs="1260238.92" HC_abs="22.44" PMx_abs="154.41" NOx_abs="501.23" fuel_abs="404999.52" electricity_abs="0.00"/>
    </tripinfo>
    <tripinfo id="flow_off_S2N.6" depart="101.00" departLane="S2C_0" departPos="2.10" departSpeed="0.00" departDelay="0.00" arrival="183.00" arrivalLane="C2N_0" arrivalPos="489.60" arrivalSpeed="12.04" duration="82.00" routeLength="997.90" waitingTime="0.00" waitingCount="0" stopTime="0.00" timeLoss="8.39" rerouteNo="0" devices="tripinfo_flow_off_S2N.6 routing_flow_off_S2N.6 emissions_flow_off_S2N.6" vType="moto" speedFactor="0.98" vaporized="">
        <emissions CO_abs="3788.69" CO2_abs="117275.20" HC_abs="1400.50" PMx_abs="28.05" NOx_abs="169.86" fuel_abs="38027.08" electricity_abs="0.00"/>
    </tripinfo>
    <tripinfo id="flow_off_E2W.4" depart="106.00" departLane="E2C_0" departPos="12.10" departSpeed="0.00" departDelay="0.00" arrival="189.00" arrivalLane="C2W_0" arrivalPos="489.60" arrivalSpeed="13.49" duration="83.00" routeLength="987.90" waitingTime="0.00" waitingCount="0" stopTime="0.00" timeLoss="11.40" rerouteNo="0" devices="tripinfo_flow_off_E2W.4 routing_flow_off_E2W.4 emissions_flow_off_E2W.4" vType="bus" speedFactor="1.00" vaporized="">
        <emissions CO_abs="209.44" CO2_abs="1141551.73" HC_abs="19.86" PMx_abs="130.54" NOx_abs="428.14" fuel_abs="366855.50" electricity_abs="0.00"/>
    </tripinfo>
    <tripinfo id="flow_off_W2E.3" depart="112.00" departLane="W2C_0" departPos="5.10" departSpeed="0.00" departDelay="0.00" arrival="191.00" arrivalLane="C2E_0" arrivalPos="489.60" arrivalSpeed="12.72" duration="79.00" routeLength="994.90" waitingTime="0.00" waitingCount="0" stopTime="0.00" timeLoss="6.43" rerouteNo="0" devices="tripinfo_flow_off_W2E.3 routing_flow_off_W2E.3 emissions_flow_off_W2E.3" vType="car" speedFactor="0.99" vaporized="">
        <emissions CO_abs="1034.78" CO2_abs="177126.02" HC_abs="6.93" PMx_abs="19.91" NOx_abs="61.80" fuel_abs="57421.93" electricity_abs="0.00"/>
    </tripinfo>
    <tripinfo id="flow_off_E2W.5" depart="112.00" departLane="E2C_0" departPos="15.10" departSpeed="0.00" departDelay="0.00" arrival="193.00" arrivalLane="C2W_1" arrivalPos="489.60" arrivalSpeed="13.53" duration="81.00" routeLength="984.90" waitingTime="0.00" waitingCount="0" stopTime="0.00" timeLoss="9.58" rerouteNo="0" devices="tripinfo_flow_off_E2W.5 routing_flow_off_E2W.5 emissions_flow_off_E2W.5" vType="truck" speedFactor="1.01" vaporized="">
        <emissions CO_abs="110.06" CO2_abs="430024.91" HC_abs="9.81" PMx_abs="129.34" NOx_abs="230.80" fuel_abs="138209.34" electricity_abs="0.00"/>
    </tripinfo>
    <tripinfo id="flow_off_E2W.3" depart="87.00" departLane="E2C_0" departPos="5.10" departSpeed="0.00" departDelay="0.00" arrival="194.00" arrivalLane="C2W_0" arrivalPos="489.60" arrivalSpeed="12.83" duration="107.00" routeLength="994.90" waitingTime="18.00" waitingCount="1" stopTime="0.00" timeLoss="29.84" rerouteNo="0" devices="tripinfo_flow_off_E2W.3 routing_flow_off_E2W.3 emissions_flow_off_E2W.3" vType="car" speedFactor="0.94" vaporized="">
        <emissions CO_abs="1109.78" CO2_abs="240140.95" HC_abs="7.41" PMx_abs="21.47" NOx_abs="83.86" fuel_abs="77850.72" electricity_abs="0.00"/>
    </tripinfo>
    <tripinfo id="flow_off_E2W.6" depart="122.00" departLane="E2C_0" departPos="5.10" departSpeed="0.00" departDelay="0.00" arrival="195.00" arrivalLane="C2W_1" arrivalPos="489.60" arrivalSpeed="15.11" duration="73.00" routeLength="994.90" waitingTime="0.00" waitingCount="0" stopTime="0.00" timeLoss="7.29" rerouteNo="0" devices="tripinfo_flow_off_E2W.6 routing_flow_off_E2W.6 emissions_flow_off_E2W.6" vType="car" speedFactor="1.10" vaporized="">
        <emissions CO_abs="1341.60" CO2_abs="192793.73" HC_abs="8.97" PMx_abs="21.44" NOx_abs="68.16" fuel_abs="62501.06" electricity_abs="0.00"/>
    </tripinfo>
    <tripinfo id="flow_off_N2S.7" depart="120.00" departLane="N2C_0" departPos="15.10" departSpeed="0.00" departDelay="0.00" arrival="207.00" arrivalLane="C2S_0" arrivalPos="489.60" arrivalSpeed="12.92" duration="87.00" routeLength="984.90" waitingTime="0.00" waitingCount="0" stopTime="0.00" timeLoss="11.83" rerouteNo="0" devices="tripinfo_flow_off_N2S.7 routing_flow_off_N2S.7 emissions_flow_off_N2S.7" vType="truck" speedFactor="0.94" vaporized="">
        <emissions CO_abs="117.08" CO2_abs="444271.66" HC_abs="10.05" PMx_abs="127.00" NOx_abs="222.79" fuel_abs="142784.65" electricity_abs="0.00"/>
    </tripinfo>
    <tripinfo id="flow_off_N2S.6" depart="113.00" departLane="N2C_0" departPos="12.10" departSpeed="0.00" departDelay="0.00" arrival="210.00" arrivalLane="C2S_0" arrivalPos="489.60" arrivalSpeed="13.32" duration="97.00" routeLength="987.90" waitingTime="8.00" waitingCount="1" stopTime="0.00" timeLoss="25.55" rerouteNo="0" devices="tripinfo_flow_off_N2S.6 routing_flow_off_N2S.6 emissions_flow_off_N2S.6" vType="bus" speedFactor="1.00" vaporized="">
        <emissions CO_abs="254.01" CO2_abs="1259660.28" HC_abs="22.65" PMx_abs="156.66" NOx_abs="504.49" fuel_abs="404811.31" electricity_abs="0.00"/>
    </tripinfo>
    <tripinfo id="flow_off_S2N.7" depart="106.00" departLane="S2C_0" departPos="12.10" departSpeed="0.00" departDelay="0.00" arrival="211.00" arrivalLane="C2N_0" arrivalPos="489.60" arrivalSpeed="13.58" duration="105.00" routeLength="987.90" waitingTime="15.00" waitingCount="1" stopTime="0.00" timeLoss="33.43" rerouteNo="0" devices="tripinfo_flow_off_S2N.7 routing_flow_off_S2N.7 emissions_flow_off_S2N.7" vType="bus" speedFactor="1.00" vaporized="">
        <emissions CO_abs="264.11" CO2_abs="1267166.33" HC_abs="22.98" PMx_abs="160.77" NOx_abs="517.08" fuel_abs="407224.59" electricity_abs="0.00"/>
    </tripinfo>
    <tripinfo id="flow_off_N2S.8" depart="124.00" departLane="N2C_0" departPos="2.10" departSpeed="0.00" departDelay="0.00" arrival="217.00" arrivalLane="C2S_0" arrivalPos="489.60" arrivalSpeed="11.74" duration="93.00" routeLength="997.90" waitingTime="0.00" waitingCount="0" stopTime="0.00" timeLoss="9.21" rerouteNo="0" devices="tripinfo_flow_off_N2S.8 routing_flow_off_N2S.8 emissions_flow_off_N2S.8" vType="moto" speedFactor="0.86" vaporized="">
        <emissions CO_abs="2886.28" CO2_abs="116909.76" HC_abs="1433.25" PMx_abs="29.31" NOx_abs="149.91" fuel_abs="37908.78" electricity_abs="0.00"/>
    </tripinfo>
    <tripinfo id="flow_off_S2N.4" depart="93.00" departLane="S2C_0" departPos="5.10" departSpeed="0.00" departDelay="0.00" arrival="218.00" arrivalLane="C2N_0" arrivalPos="489.60" arrivalSpeed="10.25" duration="125.00" routeLength="994.90" waitingTime="20.00" waitingCount="1" stopTime="0.00" timeLoss="31.84" rerouteNo="0" devices="tripinfo_flow_off_S2N.4 routing_flow_off_S2N.4 emissions_flow_off_S2N.4" vType="car" speedFactor="0.77" vaporized="">
        <emissions CO_abs="748.66" CO2_abs="236741.59" HC_abs="4.99" PMx_abs="20.09" NOx_abs="81.82" fuel_abs="76748.89" electricity_abs="0.00"/>
    </tripinfo>
    <tripinfo id="flow_off_N2S.9" depart="141.00" departLane="N2C_0" departPos="5.10" departSpeed="0.00" departDelay="0.00" arrival="223.00" arrivalLane="C2S_0" arrivalPos="489.60" arrivalSpeed="12.72" duration="82.00" routeLength="994.90" waitingTime="0.00" waitingCount="0" stopTime="0.00" timeLoss="6.52" rerouteNo="0" devices="tripinfo_flow_off_N2S.9 routing_flow_off_N2S.9 emissions_flow_off_N2S.9" vType="car" speedFactor="0.96" vaporized="">
        <emissions CO_abs="888.14" CO2_abs="175216.10" HC_abs="5.96" PMx_abs="21.50" NOx_abs="61.21" fuel_abs="56802.92" electricity_abs="0.00"/>
    </tripinfo>
    <tripinfo id="flow_off_S2N.8" depart="143.00" departLane="S2C_0" departPos="2.10" departSpeed="0.00" departDelay="0.00" arrival="224.00" arrivalLane="C2N_0" arrivalPos="489.60" arrivalSpeed="12.11" duration="81.00" routeLength="997.90" waitingTime="0.00" waitingCount="0" stopTime="0.00" timeLoss="7.61" rerouteNo="0" devices="tripinfo_flow_off_S2N.8 routing_flow_off_S2N.8 emissions_flow_off_S2N.8" vType="moto" speedFactor="0.98" vaporized="">
        <emissions CO_abs="3586.47" CO2_abs="111937.13" HC_abs="1351.26" PMx_abs="27.50" NOx_abs="157.21" fuel_abs="36296.32" electricity_abs="0.00"/>
    </tripinfo>
    <tripinfo id="flow_off_S2N.9" depart="149.00" departLane="S2C_0" departPos="15.10" departSpeed="0.00" departDelay="0.00" arrival="229.00" arrivalLane="C2N_0" arrivalPos="489.60" arrivalSpeed="13.75" duration="80.00" routeLength="984.90" waitingTime="0.00" waitingCount="0" stopTime="0.00" timeLoss="9.61" rerouteNo="0" devices="tripinfo_flow_off_S2N.9 routing_flow_off_S2N.9 emissions_flow_off_S2N.9" vType="truck" speedFactor="1.01" vaporized="">
        <emissions CO_abs="110.88" CO2_abs="428030.49" HC_abs="9.90" PMx_abs="133.18" NOx_abs="235.50" fuel_abs="137569.20" electricity_abs="0.00"/>
    </tripinfo>
    <tripinfo id="flow_off_E2W.8" depart="156.00" departLane="E2C_0" departPos="5.10" departSpeed="0.00" departDelay="0.00" arrival="235.00" arrivalLane="C2W_0" arrivalPos="489.60" arrivalSpeed="15.66" duration="79.00" routeLength="994.90" waitingTime="3.00" waitingCount="1" stopTime="0.00" timeLoss="15.23" rerouteNo="0" devices="tripinfo_flow_off_E2W.8 routing_flow_off_E2W.8 emissions_flow_off_E2W.8" vType="car" speedFactor="1.14" vaporized="">
        <emissions CO_abs="1507.42" CO2_abs="228931.24" HC_abs="10.10" PMx_abs="24.62" NOx_abs="80.38" fuel_abs="74216.36" electricity_abs="0.00"/>
    </tripinfo>
    <tripinfo id="flow_off_E2W.9" depart="172.00" departLane="E2C_0" departPos="5.10" departSpeed="0.00" departDelay="0.00" arrival="240.00" arrivalLane="C2W_1" arrivalPos="489.60" arrivalSpeed="15.30" duration="68.00" routeLength="994.90" waitingTime="0.00" waitingCount="0" stopTime="0.00" timeLoss="5.93" rerouteNo="0" devices="tripinfo_flow_off_E2W.9 routing_flow_off_E2W.9 emissions_flow_off_E2W.9" vType="car" speedFactor="1.17" vaporized="">
        <emissions CO_abs="1403.31" CO2_abs="188026.59" HC_abs="9.41" PMx_abs="22.60" NOx_abs="67.34" fuel_abs="60955.63" electricity_abs="0.00"/>
    </tripinfo>
    <tripinfo id="flow_off_E2W.7" depart="131.00" departLane="E2C_0" departPos="12.10" departSpeed="0.00" departDelay="0.00" arrival="243.00" arrivalLane="C2W_0" arrivalPos="489.60" arrivalSpeed="13.87" duration="112.00" routeLength="987.90" waitingTime="22.00" waitingCount="1" stopTime="0.00" timeLoss="40.39" rerouteNo="0" devices="tripinfo_flow_off_E2W.7 routing_flow_off_E2W.7 emissions_flow_off_E2W.7" vType="bus" speedFactor="1.00" vaporized="">
        <emissions CO_abs="283.84" CO2_abs="1301086.65" HC_abs="24.45" PMx_abs="177.15" NOx_abs="564.63" fuel_abs="418124.72" electricity_abs="0.00"/>
    </tripinfo>
    <tripinfo id="flow_off_S2N.10" depart="154.00" departLane="S2C_0" departPos="5.10" departSpeed="0.00" departDelay="3.00" arrival="260.00" arrivalLane="C2N_0" arrivalPos="489.60" arrivalSpeed="12.03" duration="106.00" routeLength="994.90" waitingTime="11.00" waitingCount="1" stopTime="0.00" timeLoss="25.10" rerouteNo="0" devices="tripinfo_flow_off_S2N.10 routing_flow_off_S2N.10 emissions_flow_off_S2N.10" vType="car" speedFactor="0.89" vaporized="">
        <emissions CO_abs="864.70" CO2_abs="218996.22" HC_abs="5.78" PMx_abs="21.34" NOx_abs="75.39" fuel_abs="70995.89" electricity_abs="0.00"/>
    </tripinfo>
    <tripinfo id="flow_off_S2N.11" depart="187.00" departLane="S2C_0" departPos="2.10" departSpeed="0.00" departDelay="0.00" arrival="262.00" arrivalLane="C2N_0" arrivalPos="489.60" arrivalSpeed="13.60" duration="75.00" routeLength="997.90" waitingTime="0.00" waitingCount="0" stopTime="0.00" timeLoss="6.57" rerouteNo="0" devices="tripinfo_flow_off_S2N.11 routing_flow_off_S2N.11 emissions_flow_off_S2N.11" vType="moto" speedFactor="1.05" vaporized="">
        <emissions CO_abs="4712.89" CO2_abs="124223.77" HC_abs="1476.98" PMx_abs="29.98" NOx_abs="185.07" fuel_abs="40280.29" electricity_abs="0.00"/>
    </tripinfo>
    <tripinfo id="flow_off_N2S.10" depart="183.00" departLane="N2C_0" departPos="5.10" departSpeed="0.00" departDelay="0.00" arrival="265.00" arrivalLane="C2S_0" arrivalPos="489.60" arrivalSpeed="12.98" duration="82.00" routeLength="994.90" waitingTime="0.00" waitingCount="0" stopTime="0.00" timeLoss="6.98" rerouteNo="0" devices="tripinfo_flow_off_N2S.10 routing_flow_off_N2S.10 emissions_flow_off_N2S.10" vType="car" speedFactor="0.96" vaporized="">
        <emissions CO_abs="1062.68" CO2_abs="185029.51" HC_abs="7.10" PMx_abs="20.09" NOx_abs="64.36" fuel_abs="59984.12" electricity_abs="0.00"/>
    </tripinfo>
    <tripinfo id="flow_off_E2W.10" depart="186.00" departLane="E2C_0" departPos="5.10" departSpeed="0.00" departDelay="0.00" arrival="284.00" arrivalLane="C2W_0" arrivalPos="489.60" arrivalSpeed="14.40" duration="98.00" routeLength="994.90" waitingTime="18.00" waitingCount="1" stopTime="0.00" timeLoss="31.05" rerouteNo="0" devices="tripinfo_flow_off_E2W.10 routing_flow_off_E2W.10 emissions_flow_off_E2W.10" vType="car" speedFactor="1.07" vaporized="">
        <emissions CO_abs="1258.86" CO2_abs="238334.92" HC_abs="8.44" PMx_abs="22.98" NOx_abs="84.15" fuel_abs="77265.19" electricity_abs="0.00"/>
    </tripinfo>
    <tripinfo id="flow_off_W2E.4" depart="203.00" departLane="W2C_0" departPos="2.10" departSpeed="0.00" departDelay="0.00" arrival="286.00" arrivalLane="C2E_0" arrivalPos="489.60" arrivalSpeed="12.32" duration="83.00" routeLength="997.90" waitingTime="1.00" waitingCount="1" stopTime="0.00" timeLoss="11.66" rerouteNo="0" devices="tripinfo_flow_off_W2E.4 routing_flow_off_W2E.4 emissions_flow_off_W2E.4" vType="moto" speedFactor="1.01" vaporized="">
        <emissions CO_abs="4218.60" CO2_abs="129371.55" HC_abs="1525.09" PMx_abs="30.55" NOx_abs="185.62" fuel_abs="41949.32" electricity_abs="0.00"/>
    </tripinfo>
    <tripinfo id="flow_off_S2N.12" depart="200.00" departLane="S2C_0" departPos="2.10" departSpeed="0.00" departDelay="0.00" arrival="304.00" arrivalLane="C2N_0" arrivalPos="489.60" arrivalSpeed="12.82" duration="104.00" routeLength="997.90" waitingTime="19.00" waitingCount="1" stopTime="0.00" timeLoss="30.83" rerouteNo="0" devices="tripinfo_flow_off_S2N.12 routing_flow_off_S2N.12 emissions_flow_off_S2N.12" vType="moto" speedFactor="0.99" vaporized="">
        <emissions CO_abs="3859.33" CO2_abs="149957.83" HC_abs="1877.02" PMx_abs="38.01" NOx_abs="186.74" fuel_abs="48624.89" electricity_abs="0.00"/>
    </tripinfo>
    <tripinfo id="flow_off_E2W.11" depart="225.00" departLane="E2C_0" departPos="2.10" departSpeed="0.00" departDelay="0.00" arrival="313.00" arrivalLane="C2W_0" arrivalPos="489.60" arrivalSpeed="15.42" duration="88.00" routeLength="997.90" waitingTime="16.00" waitingCount="1" stopTime="0.00" timeLoss="26.56" rerouteNo="0" devices="tripinfo_flow_off_E2W.11 routing_flow_off_E2W.11 emissions_flow_off_E2W.11" vType="moto" speedFactor="1.17" vaporized="">
        <emissions CO_abs="5734.48" CO2_abs="153185.53" HC_abs="1853.35" PMx_abs="36.59" NOx_abs="221.80" fuel_abs="49671.17" electricity_abs="0.00"/>
    </tripinfo>
    <tripinfo id="flow_off_W2E.5" depart="237.00" departLane="W2C_0" departPos="5.10" departSpeed="0.00" departDelay="0.00" arrival="314.00" arrivalLane="C2E_0" arrivalPos="489.60" arrivalSpeed="15.72" duration="77.00" routeLength="994.90" waitingTime="1.00" waitingCount="1" stopTime="0.00" timeLoss="14.81" rerouteNo="0" devices="tripinfo_flow_off_W2E.5 routing_flow_off_W2E.5 emissions_flow_off_W2E.5" vType="car" speedFactor="1.16" vaporized="">
        <emissions CO_abs="1512.07" CO2_abs="222622.86" HC_abs="10.11" PMx_abs="23.98" NOx_abs="77.75" fuel_abs="72171.17" electricity_abs="0.00"/>
    </tripinfo>
    <tripinfo id="flow_off_W2E.6" depart="240.00" departLane="W2C_0" departPos="5.10" departSpeed="0.00" departDelay="1.00" arrival="314.00" arrivalLane="C2E_1" arrivalPos="489.60" arrivalSpeed="14.87" duration="74.00" routeLength="994.90" waitingTime="0.00" waitingCount="0" stopTime="0.00" timeLoss="10.91" rerouteNo="0" devices="tripinfo_flow_off_W2E.6 routing_flow_off_W2E.6 emissions_flow_off_W2E.6" vType="car" speedFactor="1.15" vaporized="">
        <emissions CO_abs="1568.54" CO2_abs="215784.64" HC_abs="10.48" PMx_abs="21.79" NOx_abs="75.48" fuel_abs="69954.19" electricity_abs="0.00"/>
    </tripinfo>
    <tripinfo id="flow_off_E2W.12" depart="239.00" departLane="E2C_0" departPos="5.10" departSpeed="0.00" departDelay="0.00" arrival="318.00" arrivalLane="C2W_0" arrivalPos="489.60" arrivalSpeed="13.03" duration="79.00" routeLength="994.90" waitingTime="0.00" waitingCount="0" stopTime="0.00" timeLoss="6.52" rerouteNo="0" devices="tripinfo_flow_off_E2W.12 routing_flow_off_E2W.12 emissions_flow_off_E2W.12" vType="car" speedFactor="1.00" vaporized="">
        <emissions CO_abs="1007.79" CO2_abs="187754.92" HC_abs="6.78" PMx_abs="23.50" NOx_abs="65.95" fuel_abs="60867.84" electricity_abs="0.00"/>
    </tripinfo>
    <tripinfo id="flow_off_N2S.11" depart="249.00" departLane="N2C_0" departPos="5.10" departSpeed="0.00" departDelay="0.00" arrival="330.00" arrivalLane="C2S_0" arrivalPos="489.60" arrivalSpeed="15.93" duration="81.00" routeLength="994.90" waitingTime="7.00" waitingCount="1" stopTime="0.00" timeLoss="18.20" rerouteNo="0" devices="tripinfo_flow_off_N2S.11 routing_flow_off_N2S.11 emissions_flow_off_N2S.11" vType="car" speedFactor="1.15" vaporized="">
        <emissions CO_abs="1432.11" CO2_abs="223856.85" HC_abs="9.60" PMx_abs="23.89" NOx_abs="78.62" fuel_abs="72571.34" electricity_abs="0.00"/>
    </tripinfo>
    <tripinfo id="flow_off_S2N.13" depart="250.00" departLane="S2C_0" departPos="2.10" departSpeed="0.00" departDelay="0.00" arrival="332.00" arrivalLane="C2N_0" arrivalPos="489.60" arrivalSpeed="14.65" duration="82.00" routeLength="997.90" waitingTime="4.00" waitingCount="1" stopTime="0.00" timeLoss="14.18" rerouteNo="0" devices="tripinfo_flow_off_S2N.13 routing_flow_off_S2N.13 emissions_flow_off_S2N.13" vType="moto" speedFactor="1.06" vaporized="">
        <emissions CO_abs="4598.46" CO2_abs="130981.49" HC_abs="1533.79" PMx_abs="30.19" NOx_abs="195.68" fuel_abs="42471.22" electricity_abs="0.00"/>
    </tripinfo>